# Force coefficients
# dragDir       : (1.00000000e+00 0.00000000e+00 0.00000000e+00)
# sideDir       : (0.00000000e+00 0.00000000e+00 -1.00000000e+00)
# liftDir       : (0.00000000e+00 1.00000000e+00 0.00000000e+00)
# rollAxis      : (1.00000000e+00 0.00000000e+00 0.00000000e+00)
# pitchAxis     : (0.00000000e+00 0.00000000e+00 -1.00000000e+00)
# yawAxis       : (0.00000000e+00 1.00000000e+00 0.00000000e+00)
# magUInf       : 1.00000000e+00
# lRef          : 3.71900030e+00
# Aref          : 8.26663469e-01
# CofR          : (0.00000000e+00 0.00000000e+00 0.00000000e+00)
#
# Time          	Cd              	Cs              	Cl              	CmRoll          	CmPitch         	CmYaw           	Cd(f)           	Cd(r)           	Cs(f)           	Cs(r)           	Cl(f)           	Cl(r)           
1               	1.52653625e+01	-1.65832709e-03	2.23465846e-03	-4.81935037e-08	-1.17615510e-04	-3.50497221e-04	7.63268119e+00	7.63268128e+00	-1.17966077e-03	-4.78666326e-04	9.99713718e-04	1.23494474e-03
2               	1.38708781e+01	-1.47142385e-03	2.66509261e-03	-2.41428733e-08	-7.32063612e-05	-3.96366728e-04	6.93543904e+00	6.93543909e+00	-1.13207865e-03	-3.39345198e-04	1.25933994e-03	1.40575266e-03
3               	3.63937290e+00	-1.78387302e-04	1.59605198e-03	5.20516224e-08	1.74718002e-04	-7.27023214e-05	1.81968650e+00	1.81968640e+00	-1.61895972e-04	-1.64913294e-05	9.72743990e-04	6.23307986e-04
4               	-6.11018783e+00	3.35972419e-04	-6.91299707e-04	9.29605507e-08	7.51034344e-05	3.34291083e-04	-3.05509382e+00	-3.05509401e+00	5.02277293e-04	-1.66304874e-04	-2.70546419e-04	-4.20753288e-04
5               	-8.62440554e+00	1.43300212e-04	-1.86481578e-03	4.25732599e-08	-5.23569680e-06	4.16579242e-04	-4.31220273e+00	-4.31220281e+00	4.88229348e-04	-3.44929136e-04	-9.37643586e-04	-9.27172193e-04
6               	-4.30147430e+00	-6.56963577e-04	-1.90100721e-03	8.20036725e-08	-2.18818924e-04	2.89955907e-04	-2.15073707e+00	-2.15073723e+00	-3.85258815e-05	-6.18437695e-04	-1.16932253e-03	-7.31684681e-04
7               	1.66921507e+00	-1.02625571e-03	-1.34376987e-03	1.72825832e-07	-4.24690066e-04	4.91172109e-05	8.34607710e-01	8.34607364e-01	-4.64010647e-04	-5.62245068e-04	-1.09657500e-03	-2.47194872e-04
8               	4.75255145e+00	-1.08771260e-03	6.64664902e-04	1.76018504e-07	-3.17660700e-05	-8.96553870e-06	2.37627590e+00	2.37627555e+00	-5.52821840e-04	-5.34890762e-04	3.00566381e-04	3.64098521e-04
9               	3.76805175e+00	2.56369796e-04	2.05417644e-03	1.56403262e-07	3.83294693e-04	-2.04947488e-04	1.88402603e+00	1.88402572e+00	-7.67625905e-05	3.33132386e-04	1.41038291e-03	6.43793527e-04
10              	7.41640400e-01	1.00660217e-03	2.19863544e-03	3.52504434e-07	5.80444137e-04	-1.73564348e-04	3.70820553e-01	3.70819848e-01	3.29736738e-04	6.76865434e-04	1.67976186e-03	5.18873585e-04
11              	-1.62349576e+00	1.21074137e-03	4.56243426e-04	3.50542142e-07	2.21334875e-04	-1.57786234e-04	-8.11747529e-01	-8.11748230e-01	4.47584448e-04	7.63156917e-04	4.49456588e-04	6.78683788e-06
12              	-1.98592187e+00	3.04012097e-04	-1.06375634e-03	2.64081179e-07	-2.35372564e-04	-2.06207790e-07	-9.92960670e-01	-9.92961198e-01	1.51799840e-04	1.52212256e-04	-7.67250734e-04	-2.96505605e-04
13              	-7.33053293e-01	-7.96238565e-04	-1.89542079e-03	2.65695420e-07	-5.07254134e-04	1.55642116e-04	-3.66526381e-01	-3.66526912e-01	-2.42477167e-04	-5.53761398e-04	-1.45496453e-03	-4.40456260e-04
14              	7.36597229e-01	-9.80943765e-04	-1.39426596e-03	2.69849093e-07	-4.26953716e-04	1.52023074e-04	3.68298884e-01	3.68298345e-01	-3.38448808e-04	-6.42494957e-04	-1.12408670e-03	-2.70179264e-04
15              	1.35678004e+00	-2.40762265e-04	-5.01011987e-04	2.90240272e-07	-1.94925016e-04	3.81042228e-06	6.78390312e-01	6.78389731e-01	-1.16570710e-04	-1.24191555e-04	-4.45431010e-04	-5.55809770e-05
16              	1.00414871e+00	6.19226813e-04	1.32303074e-04	2.20670654e-07	2.16361013e-05	-1.24765093e-04	5.02074575e-01	5.02074133e-01	1.84848314e-04	4.34378499e-04	8.77876381e-05	4.45154356e-05
17              	2.50529225e-01	9.39711512e-04	2.83533202e-05	1.54326047e-07	3.91392459e-05	-1.50500495e-04	1.25264767e-01	1.25264458e-01	3.19355261e-04	6.20356251e-04	5.33159060e-05	-2.49625858e-05
18              	-2.61394341e-01	6.75398821e-04	-4.05064141e-04	9.86466197e-08	-8.12201619e-05	-1.11065029e-04	-1.30697072e-01	-1.30697269e-01	2.26634382e-04	4.48764440e-04	-2.83752233e-04	-1.21311909e-04
19              	-2.73825479e-01	1.01857799e-04	-8.43397432e-04	3.64662570e-08	-2.46355342e-04	-3.84658113e-05	-1.36912703e-01	-1.36912776e-01	1.24630884e-05	8.93947110e-05	-6.68054057e-04	-1.75343374e-04
20              	4.61496611e-02	-3.45407044e-04	-9.34386657e-04	-1.84841557e-08	-3.11470759e-04	2.48233431e-05	2.30748121e-02	2.30748490e-02	-1.47880179e-04	-1.97526865e-04	-7.78664087e-04	-1.55722569e-04
21              	3.67119639e-01	-3.67727819e-04	-6.07850250e-04	-7.50895103e-08	-2.17170732e-04	3.76143070e-05	1.83559744e-01	1.83559894e-01	-1.46249602e-04	-2.21478216e-04	-5.21095857e-04	-8.67543931e-05
22              	4.70386329e-01	-2.44831679e-05	-2.79907457e-04	-1.21083025e-07	-9.15382862e-05	-4.36979752e-06	2.35193043e-01	2.35193286e-01	-1.66113815e-05	-7.87178642e-06	-2.31492015e-04	-4.84154424e-05
23              	3.60042765e-01	3.76502973e-04	-2.56579374e-04	-1.50944000e-07	-4.69761226e-05	-5.62950369e-05	1.80021232e-01	1.80021534e-01	1.31956450e-04	2.44546524e-04	-1.75265810e-04	-8.13135644e-05
24              	1.82585230e-01	5.45028960e-04	-4.88270342e-04	-1.67308059e-07	-1.06694215e-04	-7.23547213e-05	9.12924477e-02	9.12927823e-02	2.00159759e-04	3.44869201e-04	-3.50829386e-04	-1.37440956e-04
25              	8.09125042e-02	4.02280962e-04	-7.87204274e-04	-1.77919609e-07	-2.15195996e-04	-5.12981581e-05	4.04560742e-02	4.04564300e-02	1.49842323e-04	2.52438639e-04	-6.08798133e-04	-1.78406141e-04
26              	9.57073288e-02	1.06198138e-04	-8.69438362e-04	-1.89273674e-07	-2.73416527e-04	-1.56199589e-05	4.78534751e-02	4.78538537e-02	3.74791103e-05	6.87190281e-05	-7.08135708e-04	-1.61302654e-04
27              	1.75108170e-01	-1.04010200e-04	-6.74343797e-04	-1.96254822e-07	-2.38009070e-04	7.70488768e-06	8.75538889e-02	8.75542814e-02	-4.43002122e-05	-5.97099875e-05	-5.75180969e-04	-9.91628288e-05
28              	2.42559896e-01	-1.06851644e-04	-3.72158508e-04	-1.97591768e-07	-1.49680430e-04	4.23059280e-06	1.21279750e-01	1.21280146e-01	-4.91952293e-05	-5.76564149e-05	-3.35759684e-04	-3.63988235e-05
29              	2.56015628e-01	3.53739474e-05	-2.17028061e-04	-1.93001832e-07	-9.05007132e-05	-1.58450920e-05	1.28007621e-01	1.28008007e-01	1.84188173e-06	3.35320657e-05	-1.99014744e-04	-1.80133174e-05
30              	2.23983047e-01	1.82495479e-04	-3.38679965e-04	-1.85574339e-07	-1.12321561e-04	-3.07975654e-05	1.11991338e-01	1.11991709e-01	6.04501742e-05	1.22045305e-04	-2.81661543e-04	-5.70184219e-05
31              	1.82727362e-01	2.18782017e-04	-6.16733819e-04	-1.80388128e-07	-1.89044590e-04	-2.26973347e-05	9.13635004e-02	9.13638612e-02	8.66936739e-05	1.32088343e-04	-4.97411500e-04	-1.19322320e-04
32              	1.62425542e-01	1.41391112e-04	-7.92894244e-04	-1.76841759e-07	-2.46076248e-04	3.84271701e-06	8.12125942e-02	8.12129479e-02	7.45382729e-05	6.68528389e-05	-6.42523369e-04	-1.50370874e-04
33              	1.69123298e-01	3.24908228e-05	-7.07483309e-04	-1.69780814e-07	-2.31207287e-04	2.64009262e-05	8.45614792e-02	8.45618187e-02	4.26463376e-05	-1.01555149e-05	-5.84948942e-04	-1.22534367e-04
34              	1.89170462e-01	-3.56474235e-05	-4.46127088e-04	-1.58587241e-07	-1.61471931e-04	3.31262753e-05	9.45850724e-02	9.45853896e-02	1.53025636e-05	-5.09499870e-05	-3.84535476e-04	-6.15916129e-05
35              	2.04538131e-01	-2.38214898e-05	-1.88808411e-04	-1.39595203e-07	-8.31270929e-05	2.42383727e-05	1.02268926e-01	1.02269205e-01	1.23276278e-05	-3.61491176e-05	-1.77531299e-04	-1.12771127e-05
36              	2.06401084e-01	3.34807826e-05	-8.47865431e-05	-1.14732442e-07	-4.13334987e-05	1.14038559e-05	1.03200427e-01	1.03200657e-01	2.81442472e-05	5.33653543e-06	-8.37267703e-05	-1.05977278e-06
37              	1.97615111e-01	7.79970994e-05	-1.33933986e-04	-8.64895979e-08	-3.97731780e-05	7.73076661e-06	9.88074689e-02	9.88076418e-02	4.67293163e-05	3.12677831e-05	-1.06740171e-04	-2.71938152e-05
38              	1.86865578e-01	7.26776835e-05	-1.89736843e-04	-5.78524572e-08	-3.94886368e-05	1.75776408e-05	9.34327311e-02	9.34328468e-02	5.39164825e-05	1.87612010e-05	-1.34357058e-04	-5.53797846e-05
39              	1.81070776e-01	3.07275436e-05	-1.09229220e-04	-2.97265853e-08	3.19482301e-07	3.54218817e-05	9.05353582e-02	9.05354177e-02	5.07856535e-05	-2.00581099e-05	-5.42951275e-05	-5.49340921e-05
40              	1.81681478e-01	-1.02644768e-05	1.26481443e-04	-4.85791434e-09	8.71097178e-05	5.08368552e-05	9.08407343e-02	9.08407440e-02	4.57046168e-05	-5.59690936e-05	1.50350439e-04	-2.38689965e-05
41              	1.85624181e-01	-2.83067811e-05	4.37003563e-04	1.45501211e-08	1.98390857e-04	5.67924443e-05	9.28121050e-02	9.28120759e-02	4.26390538e-05	-7.09458349e-05	4.16892639e-04	2.01109246e-05
42              	1.88851715e-01	-2.91915132e-05	7.09339901e-04	3.00427773e-08	3.00403888e-04	5.59513291e-05	9.44258876e-02	9.44258276e-02	4.13555725e-05	-7.05470858e-05	6.55073839e-04	5.42660624e-05
43              	1.89229907e-01	-3.04547867e-05	8.76498821e-04	4.27176871e-08	3.71992519e-04	5.52372011e-05	9.46149961e-02	9.46149107e-02	4.00098077e-05	-7.04645945e-05	8.10241929e-04	6.62568916e-05
44              	1.87197734e-01	-4.45705499e-05	9.64260886e-04	5.13746288e-08	4.17394386e-04	5.92467566e-05	9.35989184e-02	9.35988156e-02	3.69614816e-05	-8.15320315e-05	8.99524829e-04	6.47360569e-05
45              	1.84614688e-01	-6.74065880e-05	1.03480149e-03	5.67481223e-08	4.54894427e-04	6.83226912e-05	9.23074008e-02	9.23072873e-02	3.46193972e-05	-1.02025985e-04	9.72295173e-04	6.25063187e-05
46              	1.83097197e-01	-9.09074300e-05	1.13172081e-03	6.32630331e-08	4.96932699e-04	7.84239542e-05	9.15486618e-02	9.15485352e-02	3.29702391e-05	-1.23877669e-04	1.06279311e-03	6.89277075e-05
47              	1.83097537e-01	-1.00949143e-04	1.24277084e-03	6.83807928e-08	5.41404030e-04	8.48736805e-05	9.15488367e-02	9.15486999e-02	3.43991088e-05	-1.35348252e-04	1.16278945e-03	7.99813901e-05
48              	1.84069760e-01	-9.93229455e-05	1.32817929e-03	7.34562616e-08	5.76352738e-04	8.57389305e-05	9.20349533e-02	9.20348064e-02	3.60774577e-05	-1.35400403e-04	1.24044239e-03	8.77369094e-05
49              	1.85266994e-01	-9.37210755e-05	1.35779702e-03	7.86049398e-08	5.92110741e-04	8.29829522e-05	9.26335755e-02	9.26334183e-02	3.61224145e-05	-1.29843490e-04	1.27100925e-03	8.67877706e-05
50              	1.86273058e-01	-9.07446865e-05	1.33018851e-03	8.37142711e-08	5.88076762e-04	7.95658964e-05	9.31366129e-02	9.31364455e-02	3.41935531e-05	-1.24938240e-04	1.25317102e-03	7.70174936e-05
51              	1.87143959e-01	-8.74162020e-05	1.26375732e-03	9.05401946e-08	5.70339846e-04	7.87173123e-05	9.35720701e-02	9.35718890e-02	3.50092113e-05	-1.22425413e-04	1.20221851e-03	6.15388130e-05
52              	1.88101731e-01	-8.12593594e-05	1.17982396e-03	9.83308311e-08	5.44172547e-04	7.96761912e-05	9.40509638e-02	9.40507672e-02	3.90465115e-05	-1.20305871e-04	1.13408453e-03	4.57394356e-05
53              	1.89303371e-01	-7.25689872e-05	1.08795298e-03	1.04706378e-07	5.11403476e-04	8.01915321e-05	9.46517900e-02	9.46515806e-02	4.39070386e-05	-1.16476026e-04	1.05537996e-03	3.25730138e-05
54              	1.90754073e-01	-5.70671952e-05	9.79746109e-04	1.11668848e-07	4.71063610e-04	7.92388985e-05	9.53771483e-02	9.53769249e-02	5.07053009e-05	-1.07772496e-04	9.60936664e-04	1.88094449e-05
55              	1.92326120e-01	-3.37607113e-05	8.45237838e-04	1.17653282e-07	4.21416627e-04	7.68817660e-05	9.61631778e-02	9.61629425e-02	6.00014104e-05	-9.37621216e-05	8.44035546e-04	1.20229158e-06
56              	1.93895043e-01	-8.48358692e-06	6.87255034e-04	1.22002644e-07	3.62990858e-04	7.29100256e-05	9.69476434e-02	9.69473994e-02	6.86682321e-05	-7.71518191e-05	7.06618375e-04	-1.93633417e-05
57              	1.95415646e-01	1.72570259e-05	5.15187110e-04	1.27889969e-07	2.97940862e-04	6.71364233e-05	9.77079509e-02	9.77076951e-02	7.57649362e-05	-5.85079103e-05	5.55534417e-04	-4.03473065e-05
58              	1.96882889e-01	4.00001977e-05	3.44351061e-04	1.34338115e-07	2.30295849e-04	6.03154335e-05	9.84415789e-02	9.84413102e-02	8.03155324e-05	-4.03153347e-05	4.02471380e-04	-5.81203182e-05
59              	1.98262345e-01	6.60245140e-05	1.80158593e-04	1.38756613e-07	1.64081702e-04	5.47198250e-05	9.91313114e-02	9.91310339e-02	8.77320820e-05	-2.17075680e-05	2.54160998e-04	-7.40024049e-05
60              	1.99547463e-01	9.68996488e-05	2.30715559e-05	1.43862404e-07	1.01674631e-04	5.07073759e-05	9.97738754e-02	9.97735877e-02	9.91572003e-05	-2.25755148e-06	1.13210409e-04	-9.01388530e-05
61              	2.00831058e-01	1.21436863e-04	-1.24028481e-04	1.47366708e-07	4.26397823e-05	4.39822288e-05	1.00415676e-01	1.00415382e-01	1.04700660e-04	1.67362027e-05	-1.93744585e-05	-1.04654023e-04
62              	2.02177583e-01	1.38206910e-04	-2.55388062e-04	1.51362270e-07	-1.28084612e-05	3.41608695e-05	1.01088943e-01	1.01088640e-01	1.03264325e-04	3.49425858e-05	-1.40502492e-04	-1.14885570e-04
63              	2.03561646e-01	1.55326828e-04	-3.70401050e-04	1.52843455e-07	-6.09868709e-05	2.50331837e-05	1.01780976e-01	1.01780670e-01	1.02696598e-04	5.26302305e-05	-2.46187396e-04	-1.24213654e-04
64              	2.04922507e-01	1.65504341e-04	-4.60730738e-04	1.55189607e-07	-1.01205320e-04	1.49337716e-05	1.02461409e-01	1.02461098e-01	9.76859419e-05	6.78183987e-05	-3.31570689e-04	-1.29160050e-04
65              	2.06291083e-01	1.67359087e-04	-5.20644063e-04	1.56835491e-07	-1.32891932e-04	4.14856242e-06	1.03145698e-01	1.03145385e-01	8.78281058e-05	7.95309810e-05	-3.93213963e-04	-1.27430099e-04
66              	2.07701528e-01	1.61662747e-04	-5.54614833e-04	1.58994243e-07	-1.54208453e-04	-6.00575742e-06	1.03850923e-01	1.03850605e-01	7.48256162e-05	8.68371310e-05	-4.31515869e-04	-1.23098964e-04
67              	2.09193084e-01	1.46800077e-04	-5.63884352e-04	1.62472855e-07	-1.65990207e-04	-1.49619780e-05	1.04596705e-01	1.04596380e-01	5.84380602e-05	8.83620163e-05	-4.47932383e-04	-1.15951969e-04
68              	2.10753423e-01	1.33418348e-04	-5.56955899e-04	1.64439361e-07	-1.67649288e-04	-1.98431750e-05	1.05376876e-01	1.05376547e-01	4.68659989e-05	8.65523489e-05	-4.46127237e-04	-1.10828662e-04
69              	2.12357706e-01	1.19967657e-04	-5.32525285e-04	1.68435104e-07	-1.61246733e-04	-2.19250535e-05	1.06179021e-01	1.06178684e-01	3.80587749e-05	8.19088819e-05	-4.27509375e-04	-1.05015910e-04
70              	2.14033789e-01	9.50078027e-05	-4.86438780e-04	1.72043019e-07	-1.49892428e-04	-2.53861003e-05	1.07017067e-01	1.07016723e-01	2.21178011e-05	7.28900016e-05	-3.93111819e-04	-9.33269615e-05
71              	2.15797992e-01	5.86555345e-05	-4.22338652e-04	1.72697180e-07	-1.34962700e-04	-3.03731070e-05	1.07899169e-01	1.07898823e-01	-1.04533977e-06	5.97008743e-05	-3.46132026e-04	-7.62066261e-05
72              	2.17616472e-01	1.37684784e-05	-3.48210635e-04	1.73686913e-07	-1.17510346e-04	-3.68325616e-05	1.08808410e-01	1.08808062e-01	-2.99483225e-05	4.37168008e-05	-2.91615663e-04	-5.65949716e-05
73              	2.19474699e-01	-2.83641645e-05	-2.70245279e-04	1.72976783e-07	-9.92322961e-05	-4.14583332e-05	1.09737522e-01	1.09737176e-01	-5.56404154e-05	2.72762509e-05	-2.34354935e-04	-3.58903431e-05
74              	2.21368036e-01	-6.41246013e-05	-1.96091387e-04	1.70990143e-07	-8.07333912e-05	-4.36747255e-05	1.10684189e-01	1.10683847e-01	-7.57370261e-05	1.16124248e-05	-1.78779085e-04	-1.73123025e-05
75              	2.23279820e-01	-9.10675923e-05	-1.28343912e-04	1.68260256e-07	-6.25939271e-05	-4.33894538e-05	1.11640078e-01	1.11639742e-01	-8.89232500e-05	-2.14434235e-06	-1.26765883e-04	-1.57802908e-06
76              	2.25226382e-01	-1.19938736e-04	-6.27802445e-05	1.65136276e-07	-4.73660573e-05	-4.49896682e-05	1.12613356e-01	1.12613026e-01	-1.04959036e-04	-1.49796997e-05	-7.87561796e-05	1.59759351e-05
77              	2.27126407e-01	-1.53368393e-04	3.26992115e-06	1.63294603e-07	-3.64701954e-05	-4.97180283e-05	1.13563367e-01	1.13563040e-01	-1.26402225e-04	-2.69661682e-05	-3.48352348e-05	3.81051560e-05
78              	2.28894442e-01	-1.87778111e-04	6.59700540e-05	1.61710146e-07	-2.93953976e-05	-5.65196954e-05	1.14447383e-01	1.14447059e-01	-1.50408751e-04	-3.73693600e-05	3.58962943e-06	6.23804246e-05
79              	2.30614047e-01	-2.05119163e-04	1.04848622e-04	1.58598051e-07	-2.00119245e-05	-5.88243299e-05	1.15307182e-01	1.15306865e-01	-1.61383911e-04	-4.37352515e-05	3.24123863e-05	7.24362354e-05
80              	2.32255241e-01	-2.13552797e-04	1.25486977e-04	1.54972856e-07	-1.06101610e-05	-5.92011095e-05	1.16127775e-01	1.16127466e-01	-1.65977508e-04	-4.75752890e-05	5.21333278e-05	7.33536497e-05
81              	2.33679490e-01	-2.24286507e-04	1.41145880e-04	1.50930410e-07	-5.11693976e-06	-6.13341061e-05	1.16839896e-01	1.16839594e-01	-1.73477360e-04	-5.08091474e-05	6.54560003e-05	7.56898798e-05
82              	2.34982070e-01	-2.31786091e-04	1.50156097e-04	1.45952192e-07	-2.52397802e-06	-6.35341397e-05	1.17491181e-01	1.17490889e-01	-1.79427185e-04	-5.23589059e-05	7.25540704e-05	7.76020265e-05
83              	2.36148512e-01	-2.37391310e-04	1.50382056e-04	1.41307187e-07	-9.80757221e-07	-6.59757143e-05	1.18074397e-01	1.18074115e-01	-1.84671369e-04	-5.27199409e-05	7.42102709e-05	7.61717853e-05
84              	2.37080420e-01	-2.45399160e-04	1.47271596e-04	1.36489744e-07	-6.12267328e-07	-6.97169221e-05	1.18540347e-01	1.18540074e-01	-1.92416502e-04	-5.29826581e-05	7.30235305e-05	7.42480652e-05
85              	2.37696787e-01	-2.56188064e-04	1.42208094e-04	1.32717900e-07	-5.17697066e-07	-7.43165934e-05	1.18848526e-01	1.18848261e-01	-2.02410625e-04	-5.37774386e-05	7.05863502e-05	7.16217443e-05
86              	2.38063602e-01	-2.69507500e-04	1.36685121e-04	1.29362113e-07	-4.19868840e-07	-7.91772631e-05	1.19031930e-01	1.19031671e-01	-2.13931013e-04	-5.55764866e-05	6.79226915e-05	6.87624292e-05
87              	2.38277187e-01	-2.90548501e-04	1.36428386e-04	1.26926998e-07	-2.76623402e-06	-8.67548961e-05	1.19138721e-01	1.19138467e-01	-2.32029147e-04	-5.85193545e-05	6.54479590e-05	7.09804271e-05
88              	2.38317562e-01	-3.24042403e-04	1.49340850e-04	1.24854603e-07	-9.93994593e-06	-9.86577440e-05	1.19158906e-01	1.19158656e-01	-2.60678945e-04	-6.33634574e-05	6.47304791e-05	8.46103710e-05
89              	2.38003754e-01	-3.77501360e-04	1.79331569e-04	1.22554886e-07	-2.23743354e-05	-1.16995906e-04	1.19001999e-01	1.19001754e-01	-3.05746586e-04	-7.17547743e-05	6.72914489e-05	1.12040120e-04
90              	2.37201336e-01	-4.41299483e-04	2.17307180e-04	1.20161688e-07	-3.64869089e-05	-1.38250720e-04	1.18600788e-01	1.18600548e-01	-3.58900461e-04	-8.23990213e-05	7.21666810e-05	1.45140499e-04
91              	2.35985576e-01	-4.97239332e-04	2.51706701e-04	1.17882868e-07	-4.78516339e-05	-1.55919570e-04	1.17992906e-01	1.17992670e-01	-4.04539236e-04	-9.27000957e-05	7.80017164e-05	1.73704984e-04
92              	2.34563488e-01	-5.51118152e-04	2.84990058e-04	1.15288818e-07	-5.77610640e-05	-1.72375647e-04	1.17281859e-01	1.17281629e-01	-4.47934724e-04	-1.03183429e-04	8.47339650e-05	2.00256093e-04
93              	2.33122335e-01	-6.03339404e-04	3.17431451e-04	1.12314630e-07	-6.69583107e-05	-1.88319814e-04	1.16561280e-01	1.16561055e-01	-4.89989516e-04	-1.13349888e-04	9.17574148e-05	2.25674036e-04
94              	2.31685760e-01	-6.60382318e-04	3.57240349e-04	1.09106123e-07	-7.84664968e-05	-2.06027462e-04	1.15842989e-01	1.15842771e-01	-5.36218621e-04	-1.24163697e-04	1.00153678e-04	2.57086671e-04
95              	2.30233755e-01	-7.24397436e-04	4.03791448e-04	1.07118029e-07	-9.19897215e-05	-2.26163131e-04	1.15116985e-01	1.15116770e-01	-5.88361849e-04	-1.36035587e-04	1.09906003e-04	2.93885446e-04
96              	2.28742571e-01	-7.90600681e-04	4.54960296e-04	1.04823112e-07	-1.06698434e-04	-2.46911350e-04	1.14371390e-01	1.14371181e-01	-6.42211690e-04	-1.48388991e-04	1.20781714e-04	3.34178583e-04
97              	2.27279178e-01	-8.50348456e-04	4.99885478e-04	1.02714893e-07	-1.18971133e-04	-2.65306732e-04	1.13639692e-01	1.13639487e-01	-6.90480960e-04	-1.59867495e-04	1.30971606e-04	3.68913873e-04
98              	2.25962077e-01	-9.14753139e-04	5.45059134e-04	1.00913949e-07	-1.31140781e-04	-2.84966624e-04	1.12981139e-01	1.12980937e-01	-7.42343194e-04	-1.72409946e-04	1.41388786e-04	4.03670348e-04
99              	2.24851900e-01	-9.85764132e-04	5.87919594e-04	1.01128126e-07	-1.42840545e-04	-3.06838506e-04	1.12426051e-01	1.12425849e-01	-7.99720573e-04	-1.86043560e-04	1.51119252e-04	4.36800342e-04
100             	2.23950610e-01	-1.05010971e-03	6.24860830e-04	1.01067860e-07	-1.53448118e-04	-3.27049497e-04	1.11975406e-01	1.11975204e-01	-8.52104353e-04	-1.98005359e-04	1.58982296e-04	4.65878533e-04
101             	2.23154085e-01	-1.10709312e-03	6.54146209e-04	1.01809750e-07	-1.62312986e-04	-3.45536673e-04	1.11577144e-01	1.11576941e-01	-8.99083233e-04	-2.08009886e-04	1.64760119e-04	4.89386090e-04
102             	2.22342381e-01	-1.17018099e-03	6.81762840e-04	1.03799087e-07	-1.71109655e-04	-3.66533656e-04	1.11171294e-01	1.11171087e-01	-9.51624151e-04	-2.18556840e-04	1.69771766e-04	5.11991075e-04
103             	2.21493764e-01	-1.23115057e-03	7.03753795e-04	1.04038249e-07	-1.77972007e-04	-3.86751033e-04	1.10746986e-01	1.10746778e-01	-1.00232632e-03	-2.28824252e-04	1.73904890e-04	5.29848904e-04
104             	2.20674883e-01	-1.30008891e-03	7.26496092e-04	1.05329437e-07	-1.84927420e-04	-4.09342612e-04	1.10337547e-01	1.10337336e-01	-1.05938707e-03	-2.40701843e-04	1.78320626e-04	5.48175466e-04
105             	2.19932344e-01	-1.37561830e-03	7.52217615e-04	1.08317419e-07	-1.92952537e-04	-4.34261417e-04	1.09966280e-01	1.09966064e-01	-1.12207057e-03	-2.53547734e-04	1.83156270e-04	5.69061345e-04
106             	2.19265439e-01	-1.45436904e-03	7.84445220e-04	1.10587978e-07	-2.03415036e-04	-4.60207849e-04	1.09632830e-01	1.09632609e-01	-1.18739237e-03	-2.66976671e-04	1.88807574e-04	5.95637646e-04
107             	2.18625861e-01	-1.52358322e-03	8.09330745e-04	1.12559206e-07	-2.11879903e-04	-4.83276355e-04	1.09313043e-01	1.09312818e-01	-1.24506796e-03	-2.78515253e-04	1.92785470e-04	6.16545276e-04
108             	2.17980495e-01	-1.57730969e-03	8.29591064e-04	1.13080755e-07	-2.18993680e-04	-5.01230414e-04	1.08990361e-01	1.08990135e-01	-1.28988526e-03	-2.87424432e-04	1.95801852e-04	6.33789212e-04
109             	2.17299797e-01	-1.63971563e-03	8.52729538e-04	1.14458037e-07	-2.26838190e-04	-5.21342552e-04	1.08650013e-01	1.08649784e-01	-1.34120037e-03	-2.98515262e-04	1.99526579e-04	6.53202959e-04
110             	2.16568814e-01	-1.72088581e-03	8.79701788e-04	1.15463403e-07	-2.35659111e-04	-5.47575126e-04	1.08284522e-01	1.08284291e-01	-1.40801803e-03	-3.12867780e-04	2.04191782e-04	6.75510005e-04
111             	2.15796997e-01	-1.80658454e-03	9.09684191e-04	1.15785956e-07	-2.45295533e-04	-5.74963132e-04	1.07898614e-01	1.07898383e-01	-1.47825540e-03	-3.28329137e-04	2.09546562e-04	7.00137629e-04
112             	2.15040131e-01	-1.88542874e-03	9.42227810e-04	1.15969864e-07	-2.55487150e-04	-5.99922288e-04	1.07520182e-01	1.07519950e-01	-1.54263666e-03	-3.42792081e-04	2.15626755e-04	7.26601055e-04
113             	2.14350251e-01	-1.95266904e-03	9.81797769e-04	1.16937248e-07	-2.67748323e-04	-6.20434290e-04	1.07175242e-01	1.07175008e-01	-1.59676881e-03	-3.55900228e-04	2.23150561e-04	7.58647208e-04
114             	2.13711658e-01	-2.04142274e-03	1.03324612e-03	1.16261224e-07	-2.83769882e-04	-6.47333017e-04	1.06855945e-01	1.06855713e-01	-1.66804439e-03	-3.73378352e-04	2.32853178e-04	8.00392942e-04
115             	2.13083818e-01	-2.14831304e-03	1.09845595e-03	1.16765466e-07	-3.04258223e-04	-6.80064459e-04	1.06542026e-01	1.06541792e-01	-1.75422098e-03	-3.94092059e-04	2.44969753e-04	8.53486198e-04
116             	2.12456286e-01	-2.27228432e-03	1.17035185e-03	1.17251027e-07	-3.26548714e-04	-7.18173624e-04	1.06228260e-01	1.06228026e-01	-1.85431578e-03	-4.17968534e-04	2.58627209e-04	9.11724637e-04
117             	2.11869477e-01	-2.42867299e-03	1.26012454e-03	1.18533918e-07	-3.54023505e-04	-7.66342360e-04	1.05934857e-01	1.05934620e-01	-1.98067886e-03	-4.47994136e-04	2.76038765e-04	9.84085775e-04
118             	2.11367403e-01	-2.60584347e-03	1.36664780e-03	1.19420836e-07	-3.86620505e-04	-8.21069299e-04	1.05683821e-01	1.05683582e-01	-2.12399103e-03	-4.81852434e-04	2.96703393e-04	1.06994440e-03
119             	2.10898255e-01	-2.82507924e-03	1.49449680e-03	1.19820321e-07	-4.26129493e-04	-8.89725462e-04	1.05449247e-01	1.05449008e-01	-2.30226508e-03	-5.22814159e-04	3.21118910e-04	1.17337790e-03
120             	2.10439639e-01	-3.06757197e-03	1.63714298e-03	1.20822594e-07	-4.70447268e-04	-9.65722143e-04	1.05219940e-01	1.05219698e-01	-2.49950813e-03	-5.68063842e-04	3.48124220e-04	1.28901876e-03
121             	2.10002752e-01	-3.33337963e-03	1.78898810e-03	1.22884667e-07	-5.18065864e-04	-1.04981733e-03	1.05001499e-01	1.05001253e-01	-2.71650714e-03	-6.16872485e-04	3.76428186e-04	1.41255991e-03
122             	2.09633190e-01	-3.59931513e-03	1.92950908e-03	1.23616363e-07	-5.62074594e-04	-1.13420722e-03	1.04816718e-01	1.04816471e-01	-2.93386478e-03	-6.65450350e-04	4.02679945e-04	1.52682913e-03
123             	2.09416404e-01	-3.85085460e-03	2.05614796e-03	1.24313096e-07	-6.00976738e-04	-1.21290906e-03	1.04708326e-01	1.04708078e-01	-3.13833636e-03	-7.12518240e-04	4.27097241e-04	1.62905072e-03
124             	2.09438717e-01	-4.08802427e-03	2.18256664e-03	1.25893866e-07	-6.39491183e-04	-1.28620356e-03	1.04719484e-01	1.04719232e-01	-3.33021569e-03	-7.57808576e-04	4.51792136e-04	1.73077450e-03
125             	2.09666800e-01	-4.33417060e-03	2.31935771e-03	1.26238004e-07	-6.81134436e-04	-1.36196436e-03	1.04833526e-01	1.04833274e-01	-3.52904965e-03	-8.05120943e-04	4.78544420e-04	1.84081329e-03
126             	2.10042663e-01	-4.56830392e-03	2.45445311e-03	1.27190859e-07	-7.22149605e-04	-1.43374568e-03	1.05021459e-01	1.05021204e-01	-3.71789764e-03	-8.50406284e-04	5.05076951e-04	1.94937616e-03
127             	2.10515964e-01	-4.79773706e-03	2.58949015e-03	1.27344435e-07	-7.63501849e-04	-1.50435422e-03	1.05258109e-01	1.05257855e-01	-3.90322275e-03	-8.94514309e-04	5.31243225e-04	2.05824692e-03
128             	2.11033159e-01	-5.02575522e-03	2.72078446e-03	1.26577700e-07	-8.04099816e-04	-1.57518073e-03	1.05516706e-01	1.05516453e-01	-4.08805834e-03	-9.37696875e-04	5.56292416e-04	2.16449205e-03
129             	2.11585519e-01	-5.24812086e-03	2.84650618e-03	1.26985820e-07	-8.42996005e-04	-1.64446590e-03	1.05792886e-01	1.05792632e-01	-4.26852633e-03	-9.79594526e-04	5.80257084e-04	2.26624909e-03
130             	2.12181293e-01	-5.47410778e-03	2.96979079e-03	1.26264735e-07	-8.80789640e-04	-1.71456444e-03	1.06090773e-01	1.06090520e-01	-4.45161833e-03	-1.02248944e-03	6.04105755e-04	2.36568503e-03
131             	2.12829474e-01	-5.69025516e-03	3.08866949e-03	1.25532926e-07	-9.16658983e-04	-1.78065167e-03	1.06414862e-01	1.06414611e-01	-4.62577925e-03	-1.06447591e-03	6.27675760e-04	2.46099373e-03
132             	2.13532231e-01	-5.89829492e-03	3.20289470e-03	1.24801721e-07	-9.50765438e-04	-1.84358035e-03	1.06766240e-01	1.06765990e-01	-4.79272781e-03	-1.10556711e-03	6.50681912e-04	2.55221279e-03
133             	2.14257328e-01	-6.11281993e-03	3.31902519e-03	1.24667103e-07	-9.85706345e-04	-1.90885261e-03	1.07128789e-01	1.07128539e-01	-4.96526257e-03	-1.14755736e-03	6.73806250e-04	2.64521894e-03
134             	2.14975435e-01	-6.33982614e-03	3.44493971e-03	1.22848094e-07	-1.02423571e-03	-1.97874459e-03	1.07487840e-01	1.07487594e-01	-5.14865766e-03	-1.19116847e-03	6.98234144e-04	2.74670557e-03
135             	2.15687230e-01	-6.58523933e-03	3.57999182e-03	1.20852347e-07	-1.06593025e-03	-2.05490375e-03	1.07843736e-01	1.07843494e-01	-5.34752341e-03	-1.23771592e-03	7.24065662e-04	2.85592616e-03
136             	2.16413394e-01	-6.85031951e-03	3.72419154e-03	1.18746338e-07	-1.11060449e-03	-2.13732683e-03	1.08206816e-01	1.08206578e-01	-5.56248659e-03	-1.28783292e-03	7.51491278e-04	2.97270027e-03
137             	2.17188194e-01	-7.12158748e-03	3.87203704e-03	1.16105763e-07	-1.15625309e-03	-2.22131850e-03	1.08594213e-01	1.08593981e-01	-5.78211224e-03	-1.33947524e-03	7.79765432e-04	3.09227161e-03
138             	2.18033472e-01	-7.38989745e-03	4.02032377e-03	1.13303817e-07	-1.20179233e-03	-2.30387300e-03	1.09016849e-01	1.09016623e-01	-5.99882173e-03	-1.39107572e-03	8.08369557e-04	3.21195421e-03
139             	2.18952334e-01	-7.65972320e-03	4.16646629e-03	1.10607414e-07	-1.24658638e-03	-2.38666726e-03	1.09476278e-01	1.09476057e-01	-6.21652886e-03	-1.44319434e-03	8.36646767e-04	3.32981953e-03
140             	2.19922836e-01	-7.93880510e-03	4.31284346e-03	1.07805134e-07	-1.29158780e-03	-2.47261637e-03	1.09961526e-01	1.09961310e-01	-6.44201892e-03	-1.49678618e-03	8.64833929e-04	3.44800953e-03
141             	2.20899941e-01	-8.23216375e-03	4.46583082e-03	1.03645858e-07	-1.33894616e-03	-2.56348710e-03	1.10450074e-01	1.10449867e-01	-6.67956898e-03	-1.55259477e-03	8.93969244e-04	3.57186157e-03
142             	2.21848714e-01	-8.54531216e-03	4.63086134e-03	9.86245266e-08	-1.39041265e-03	-2.66090850e-03	1.10924456e-01	1.10924259e-01	-6.93356458e-03	-1.61174758e-03	9.25018016e-04	3.70584332e-03
143             	2.22748813e-01	-8.87754621e-03	4.80790464e-03	9.48298465e-08	-1.44582072e-03	-2.76444806e-03	1.11374501e-01	1.11374312e-01	-7.20322116e-03	-1.67432505e-03	9.58131605e-04	3.84977304e-03
144             	2.23590492e-01	-9.22428076e-03	4.99075652e-03	9.22550912e-08	-1.50292242e-03	-2.87247872e-03	1.11795338e-01	1.11795154e-01	-7.48461910e-03	-1.73966165e-03	9.92455844e-04	3.99830067e-03