# Force         
# CofR          : (0.00000000e+00 0.00000000e+00 0.00000000e+00)
#
# Time          	(total_x total_y total_z)	(pressure_x pressure_y pressure_z)	(viscous_x viscous_y viscous_z)
1               	(6.48001953e+03 9.48593948e-01 7.03946073e-01)	(6.44129887e+03 9.48508708e-01 7.03869471e-01)	(3.87206604e+01 8.52395552e-05 7.66019894e-05)
2               	(5.88807252e+03 1.13130967e+00 6.24607199e-01)	(5.85284434e+03 1.12955989e+00 6.24396243e-01)	(3.52281835e+01 1.74978082e-03 2.10955768e-04)
3               	(1.54488356e+03 6.77510803e-01 7.57239274e-02)	(1.51323604e+03 6.75206125e-01 7.48893580e-02)	(3.16475164e+01 2.30467705e-03 8.34569456e-04)
4               	(-2.59372396e+03 -2.93450982e-01 -1.42617500e-01)	(-2.62441140e+03 -2.94076567e-01 -1.43997635e-01)	(3.06874326e+01 6.25585465e-04 1.38013442e-03)
5               	(-3.66098849e+03 -7.91598804e-01 -6.08297494e-02)	(-3.69289520e+03 -7.92627745e-01 -6.06597315e-02)	(3.19067038e+01 1.02894082e-03 -1.70017966e-04)
6               	(-1.82594010e+03 -8.06961766e-01 2.78875580e-01)	(-1.85960043e+03 -8.04817761e-01 2.79167979e-01)	(3.36603278e+01 -2.14400499e-03 -2.92399461e-04)
7               	(7.08567930e+02 -5.70419147e-01 4.35637024e-01)	(6.73964545e+02 -5.71085492e-01 4.34171488e-01)	(3.46033849e+01 6.66345509e-04 1.46553645e-03)
8               	(2.01741860e+03 2.82144729e-01 4.61724962e-01)	(1.98309630e+03 2.81446258e-01 4.61234888e-01)	(3.43223085e+01 6.98471005e-04 4.90073968e-04)
9               	(1.59950666e+03 8.71980831e-01 -1.08826848e-01)	(1.56618905e+03 8.68683249e-01 -1.09522572e-01)	(3.33176073e+01 3.29758250e-03 6.95724158e-04)
10              	(3.14820188e+02 9.33302478e-01 -4.27294258e-01)	(2.82724983e+02 9.29053803e-01 -4.28229312e-01)	(3.20952048e+01 4.24867498e-03 9.35053131e-04)
11              	(-6.89160460e+02 1.93671544e-01 -5.13949650e-01)	(-7.20327748e+02 1.96622033e-01 -5.15992196e-01)	(3.11672880e+01 -2.95048944e-03 2.04254632e-03)
12              	(-8.43007332e+02 -4.51555727e-01 -1.29050609e-01)	(-8.73745879e+02 -4.41951812e-01 -1.30118409e-01)	(3.07385469e+01 -9.60391497e-03 1.06779965e-03)
13              	(-3.11175032e+02 -8.04590376e-01 3.37996655e-01)	(-3.41795225e+02 -8.06268199e-01 3.40443771e-01)	(3.06201932e+01 1.67782303e-03 -2.44711603e-03)
14              	(3.12679404e+02 -5.91854315e-01 4.16402478e-01)	(2.82166241e+02 -5.95857966e-01 4.18526770e-01)	(3.05131622e+01 4.00365102e-03 -2.12429167e-03)
15              	(5.75941855e+02 -2.12675426e-01 1.02201581e-01)	(5.45689049e+02 -2.19591369e-01 1.05236933e-01)	(3.02528058e+01 6.91594374e-03 -3.03535223e-03)
16              	(4.26252784e+02 5.61615555e-02 -2.62856637e-01)	(3.96431444e+02 4.79841028e-02 -2.59154625e-01)	(2.98213397e+01 8.17745276e-03 -3.70201215e-03)
17              	(1.06347575e+02 1.20357489e-02 -3.98899729e-01)	(7.70397797e+01 4.89519709e-03 -3.95354374e-01)	(2.93077949e+01 7.14055176e-03 -3.54535483e-03)
18              	(-1.10959726e+02 -1.71946362e-01 -2.86701188e-01)	(-1.39771609e+02 -1.78532259e-01 -2.83370099e-01)	(2.88118834e+01 6.58589622e-03 -3.33108957e-03)
19              	(-1.16236641e+02 -3.58015202e-01 -4.32377896e-02)	(-1.44633268e+02 -3.62880313e-01 -4.00535006e-02)	(2.83966270e+01 4.86511040e-03 -3.18428896e-03)
20              	(1.95901477e+01 -3.96639372e-01 1.46622421e-01)	(-8.46252598e+00 -3.99505449e-01 1.49929575e-01)	(2.80526737e+01 2.86607631e-03 -3.30715458e-03)
21              	(1.55839236e+02 -2.58027381e-01 1.56097404e-01)	(1.28102356e+02 -2.59727481e-01 1.59551832e-01)	(2.77368801e+01 1.70010079e-03 -3.45442774e-03)
22              	(1.99675088e+02 -1.18818390e-01 1.03929013e-02)	(1.72269919e+02 -1.20260393e-01 1.42456061e-02)	(2.74051698e+01 1.44200259e-03 -3.85270472e-03)
23              	(1.52835162e+02 -1.08915812e-01 -1.59822384e-01)	(1.25795350e+02 -1.10461776e-01 -1.55468609e-01)	(2.70398125e+01 1.54596324e-03 -4.35377449e-03)
24              	(7.75059131e+01 -2.07266703e-01 -2.31360265e-01)	(5.08493842e+01 -2.08790556e-01 -2.26667793e-01)	(2.66565290e+01 1.52385299e-03 -4.69247166e-03)
25              	(3.43466858e+01 -3.34161674e-01 -1.70764926e-01)	(8.05530716e+00 -3.35449914e-01 -1.65844560e-01)	(2.62913786e+01 1.28824052e-03 -4.92036571e-03)
26              	(4.06269659e+01 -3.69069361e-01 -4.50802274e-02)	(1.46721127e+01 -3.69708107e-01 -4.01282680e-02)	(2.59548532e+01 6.38745962e-04 -4.95195939e-03)
27              	(7.43319634e+01 -2.86253339e-01 4.41514656e-02)	(4.86877116e+01 -2.85897341e-01 4.89955746e-02)	(2.56442518e+01 -3.55997670e-04 -4.84410895e-03)
28              	(1.02964660e+02 -1.57978194e-01 4.53576352e-02)	(7.76189843e+01 -1.56404992e-01 5.00674818e-02)	(2.53456762e+01 -1.57320259e-03 -4.70984662e-03)
29              	(1.08676507e+02 -9.21266088e-02 -1.50159468e-02)	(8.36302040e+01 -8.91880401e-02 -1.03937506e-02)	(2.50463029e+01 -2.93856872e-03 -4.62219614e-03)
30              	(9.50789423e+01 -1.43766831e-01 -7.74678146e-02)	(7.03360482e+01 -1.39391924e-01 -7.28570877e-02)	(2.47428941e+01 -4.37490743e-03 -4.61072694e-03)
31              	(7.75662468e+01 -2.61798382e-01 -9.28711485e-02)	(5.31245562e+01 -2.55952617e-01 -8.82759879e-02)	(2.44416905e+01 -5.84576548e-03 -4.59516065e-03)
32              	(6.89482931e+01 -3.36577019e-01 -6.00193522e-02)	(4.47968356e+01 -3.29206369e-01 -5.54823011e-02)	(2.41514575e+01 -7.37064937e-03 -4.53705109e-03)
33              	(7.17914348e+01 -3.00320786e-01 -1.37920843e-02)	(4.79156234e+01 -2.91365474e-01 -9.34128558e-03)	(2.38758114e+01 -8.95531185e-03 -4.45079874e-03)
34              	(8.03012894e+01 -1.89377242e-01 1.51320351e-02)	(5.66877258e+01 -1.78873096e-01 1.94693277e-02)	(2.36135636e+01 -1.05041466e-02 -4.33729265e-03)
35              	(8.68247373e+01 -8.01476019e-02 1.01120245e-02)	(6.34642727e+01 -6.82965322e-02 1.43151484e-02)	(2.33604646e+01 -1.18510696e-02 -4.20312396e-03)
36              	(8.76155454e+01 -3.59911831e-02 -1.42123140e-02)	(6.45027350e+01 -2.31585522e-02 -1.01990599e-02)	(2.31128104e+01 -1.28326308e-02 -4.01325411e-03)
37              	(8.38859726e+01 -5.68538644e-02 -3.31091207e-02)	(6.10160907e+01 -4.34457897e-02 -2.93047168e-02)	(2.28698819e+01 -1.34080747e-02 -3.80440390e-03)
38              	(7.93228852e+01 -8.05417133e-02 -3.08510728e-02)	(5.66897483e+01 -6.69628305e-02 -2.72745225e-02)	(2.26331369e+01 -1.35788827e-02 -3.57655026e-03)
39              	(7.68630399e+01 -4.63668962e-02 -1.30435869e-02)	(5.44585955e+01 -3.30077737e-02 -9.69793675e-03)	(2.24044444e+01 -1.33591225e-02 -3.34565020e-03)
40              	(7.71222780e+01 5.36903215e-02 4.35718510e-03)	(5.49379409e+01 6.64642900e-02 7.45820509e-03)	(2.21843371e+01 -1.27739685e-02 -3.10101999e-03)
41              	(7.87959225e+01 1.85504382e-01 1.20159934e-02)	(5.68239123e+01 1.97410845e-01 1.48710860e-02)	(2.19720102e+01 -1.19064635e-02 -2.85509258e-03)
42              	(8.01659840e+01 3.01108895e-01 1.23915548e-02)	(5.84000072e+01 3.11952892e-01 1.50241848e-02)	(2.17659768e+01 -1.08439971e-02 -2.63262998e-03)
43              	(8.03265232e+01 3.72066467e-01 1.29278039e-02)	(5.87615776e+01 3.81780169e-01 1.53730064e-02)	(2.15649456e+01 -9.71370199e-03 -2.44520248e-03)
44              	(7.94638827e+01 4.09320734e-01 1.89198281e-02)	(5.80956765e+01 4.17997784e-01 2.12371507e-02)	(2.13682062e+01 -8.67704971e-03 -2.31732258e-03)
45              	(7.83674012e+01 4.39264635e-01 2.86135366e-02)	(5.71913981e+01 4.47105774e-01 3.08633689e-02)	(2.11760032e+01 -7.84113876e-03 -2.24983236e-03)
46              	(7.77232388e+01 4.80406082e-01 3.85894487e-02)	(5.67345254e+01 4.87683477e-01 4.08369042e-02)	(2.09887134e+01 -7.27739507e-03 -2.24745550e-03)
47              	(7.77233830e+01 5.27545896e-01 4.28520726e-02)	(5.69166690e+01 5.34574349e-01 4.51440068e-02)	(2.08067140e+01 -7.02845328e-03 -2.29193415e-03)
48              	(7.81360836e+01 5.63801075e-01 4.21617651e-02)	(5.75061763e+01 5.70891407e-01 4.45347664e-02)	(2.06299074e+01 -7.09033159e-03 -2.37300127e-03)
49              	(7.86442996e+01 5.76373555e-01 3.97838179e-02)	(5.81862706e+01 5.83840333e-01 4.22708523e-02)	(2.04580289e+01 -7.46677795e-03 -2.48703443e-03)
50              	(7.90713656e+01 5.64653971e-01 3.85203654e-02)	(5.87806072e+01 5.72794365e-01 4.11468823e-02)	(2.02907584e+01 -8.14039414e-03 -2.62651685e-03)
51              	(7.94410557e+01 5.36454482e-01 3.71074514e-02)	(5.93131862e+01 5.45564892e-01 3.99026392e-02)	(2.01278695e+01 -9.11041040e-03 -2.79518775e-03)
52              	(7.98476219e+01 5.00825470e-01 3.44939229e-02)	(5.98782675e+01 5.11184853e-01 3.74721672e-02)	(1.99693544e+01 -1.03593828e-02 -2.97824428e-03)
53              	(8.03577080e+01 4.61827000e-01 3.08049321e-02)	(6.05426286e+01 4.73686123e-01 3.39779706e-02)	(1.98150793e+01 -1.18591229e-02 -3.17303853e-03)
54              	(8.09735192e+01 4.15894083e-01 2.42245502e-02)	(6.13086224e+01 4.29476226e-01 2.76005970e-02)	(1.96648968e+01 -1.35821434e-02 -3.37604683e-03)
55              	(8.16408401e+01 3.58796439e-01 1.43311414e-02)	(6.21222010e+01 3.74297871e-01 1.79176532e-02)	(1.95186391e+01 -1.55014316e-02 -3.58651174e-03)
56              	(8.23068347e+01 2.91734052e-01 3.60121216e-03)	(6.29307744e+01 3.09294715e-01 7.39177295e-03)	(1.93760602e+01 -1.75606630e-02 -3.79056079e-03)
57              	(8.29523181e+01 2.18692648e-01 -7.32546409e-03)	(6.37153835e+01 2.38417422e-01 -3.32986897e-03)	(1.92369346e+01 -1.97247746e-02 -3.99559512e-03)
58              	(8.35751506e+01 1.46174165e-01 -1.69797516e-02)	(6.44740658e+01 1.68123999e-01 -1.27985010e-02)	(1.91010847e+01 -2.19498345e-02 -4.18125058e-03)
59              	(8.41607183e+01 7.64758260e-02 -2.80268576e-02)	(6.51923176e+01 1.00653191e-01 -2.36751279e-02)	(1.89684008e+01 -2.41773654e-02 -4.35172974e-03)
60              	(8.47062401e+01 9.79368381e-03 -4.11330958e-02)	(6.58674488e+01 3.61680955e-02 -3.66190243e-02)	(1.88387913e+01 -2.63744116e-02 -4.51407157e-03)
61              	(8.52511155e+01 -5.26490599e-02 -5.15489394e-02)	(6.65389299e+01 -2.41469689e-02 -4.68837056e-02)	(1.87121856e+01 -2.85020910e-02 -4.66523378e-03)
62              	(8.58227041e+01 -1.08410111e-01 -5.86676852e-02)	(6.72341656e+01 -7.78990041e-02 -5.38689695e-02)	(1.85885385e+01 -3.05111064e-02 -4.79871565e-03)
63              	(8.64102273e+01 -1.57232168e-01 -6.59349481e-02)	(6.79423484e+01 -1.24855773e-01 -6.10260728e-02)	(1.84678788e+01 -3.23763955e-02 -4.90887522e-03)
64              	(8.69879015e+01 -1.95576370e-01 -7.02552175e-02)	(6.86377900e+01 -1.61490012e-01 -6.52556481e-02)	(1.83501115e+01 -3.40863581e-02 -4.99956938e-03)
65              	(8.75688508e+01 -2.21009079e-01 -7.10425418e-02)	(6.93336827e+01 -1.85401879e-01 -6.59908650e-02)	(1.82351681e+01 -3.56071998e-02 -5.05167680e-03)
66              	(8.81675728e+01 -2.35429388e-01 -6.86244930e-02)	(7.00445853e+01 -1.98496639e-01 -6.35547316e-02)	(1.81229875e+01 -3.69327497e-02 -5.06976138e-03)
67              	(8.88007262e+01 -2.39364222e-01 -6.23154128e-02)	(7.07871291e+01 -2.01301466e-01 -5.72454680e-02)	(1.80135970e+01 -3.80627559e-02 -5.06994480e-03)
68              	(8.94630771e+01 -2.36423151e-01 -5.66349801e-02)	(7.15560494e+01 -1.97433611e-01 -5.16058655e-02)	(1.79070278e+01 -3.89895408e-02 -5.02911459e-03)
69              	(9.01440817e+01 -2.26052559e-01 -5.09252735e-02)	(7.23408759e+01 -1.86327504e-01 -4.59681176e-02)	(1.78032058e+01 -3.97250546e-02 -4.95715595e-03)
70              	(9.08555651e+01 -2.06489220e-01 -4.03300229e-02)	(7.31534538e+01 -1.66213376e-01 -3.54690360e-02)	(1.77021113e+01 -4.02758447e-02 -4.86098689e-03)
71              	(9.16044547e+01 -1.79279249e-01 -2.48987871e-02)	(7.40007016e+01 -1.38628426e-01 -2.01566203e-02)	(1.76037531e+01 -4.06508230e-02 -4.74216672e-03)
72              	(9.23763843e+01 -1.47812521e-01 -5.84460467e-03)	(7.48682728e+01 -1.06953284e-01 -1.25009351e-03)	(1.75081115e+01 -4.08592378e-02 -4.59451116e-03)
73              	(9.31651862e+01 -1.14716875e-01 1.20403522e-02)	(7.57500645e+01 -7.38042259e-02 1.64759615e-02)	(1.74151217e+01 -4.09126495e-02 -4.43560932e-03)
74              	(9.39688921e+01 -8.32391647e-02 2.72203605e-02)	(7.66441084e+01 -4.24256229e-02 3.14793151e-02)	(1.73247838e+01 -4.08135418e-02 -4.25895465e-03)
75              	(9.47804285e+01 -5.44809244e-02 3.86574363e-02)	(7.75432595e+01 -1.39042205e-02 4.27171885e-02)	(1.72371690e+01 -4.05767039e-02 -4.05975225e-03)
76              	(9.56067278e+01 -2.66496922e-02 5.09129968e-02)	(7.84544827e+01 1.35570214e-02 5.47564091e-02)	(1.71522452e+01 -4.02067135e-02 -3.84341230e-03)
77              	(9.64132725e+01 1.38805436e-03 6.51036086e-02)	(7.93433522e+01 4.11074864e-02 6.87295927e-02)	(1.70699202e+01 -3.97194321e-02 -3.62598420e-03)
78              	(9.71637887e+01 2.80037398e-02 7.97102478e-02)	(8.01736295e+01 6.71234343e-02 8.31086597e-02)	(1.69901593e+01 -3.91196945e-02 -3.39841192e-03)
79              	(9.78937468e+01 4.45073688e-02 8.70713804e-02)	(8.09808113e+01 8.29261711e-02 9.02447103e-02)	(1.69129355e+01 -3.84188024e-02 -3.17332990e-03)
80              	(9.85904201e+01 5.32681793e-02 9.06513880e-02)	(8.17522193e+01 9.08959069e-02 9.35993888e-02)	(1.68382007e+01 -3.76277276e-02 -2.94800085e-03)
81              	(9.91950021e+01 5.99152534e-02 9.52077587e-02)	(8.24291608e+01 9.66692840e-02 9.79322291e-02)	(1.67658413e+01 -3.67540306e-02 -2.72447038e-03)
82              	(9.97479365e+01 6.37400155e-02 9.83912699e-02)	(8.30522041e+01 9.95440347e-02 1.00895573e-01)	(1.66957323e+01 -3.58040192e-02 -2.50430327e-03)
83              	(1.00243081e+02 6.38359334e-02 1.00770639e-01)	(8.36152225e+01 9.86279651e-02 1.03068279e-01)	(1.66278589e+01 -3.47920317e-02 -2.29764008e-03)
84              	(1.00638669e+02 6.25155687e-02 1.04169905e-01)	(8.40765994e+01 9.62574897e-02 1.06283549e-01)	(1.65620691e+01 -3.37419210e-02 -2.11364415e-03)
85              	(1.00900311e+02 6.03661545e-02 1.08749705e-01)	(8.44021641e+01 9.30298303e-02 1.10706550e-01)	(1.64981471e+01 -3.26636757e-02 -1.95684575e-03)
86              	(1.01056021e+02 5.80216981e-02 1.14403694e-01)	(8.46202243e+01 8.95931862e-02 1.16233968e-01)	(1.64357966e+01 -3.15714882e-02 -1.83027329e-03)
87              	(1.01146686e+02 5.79127164e-02 1.23335425e-01)	(8.47719168e+01 8.83872643e-02 1.25082138e-01)	(1.63747695e+01 -3.04745479e-02 -1.74671349e-03)
88              	(1.01163825e+02 6.33939500e-02 1.37553308e-01)	(8.48489466e+01 9.27885651e-02 1.39263297e-01)	(1.63148783e+01 -2.93946151e-02 -1.70998915e-03)
89              	(1.01030616e+02 7.61247609e-02 1.60246191e-01)	(8.47747380e+01 1.04473516e-01 1.61970641e-01)	(1.62558780e+01 -2.83487552e-02 -1.72444985e-03)
90              	(1.00689996e+02 9.22450923e-02 1.87327964e-01)	(8.44924206e+01 1.19574179e-01 1.89104907e-01)	(1.61975756e+01 -2.73290866e-02 -1.77694317e-03)
91              	(1.00173916e+02 1.06847403e-01 2.11073965e-01)	(8.40340173e+01 1.33186980e-01 2.12934067e-01)	(1.61398990e+01 -2.63395768e-02 -1.86010151e-03)
92              	(9.95702519e+01 1.20975912e-01 2.33945077e-01)	(8.34875307e+01 1.46351714e-01 2.35905402e-01)	(1.60827211e+01 -2.53758022e-02 -1.96032493e-03)
93              	(9.89584943e+01 1.34747014e-01 2.56112564e-01)	(8.29324666e+01 1.59180991e-01 2.58180759e-01)	(1.60260277e+01 -2.44339776e-02 -2.06819537e-03)
94              	(9.83486801e+01 1.51645560e-01 2.80326807e-01)	(8.23788042e+01 1.75154436e-01 2.82496957e-01)	(1.59698759e+01 -2.35088764e-02 -2.17015031e-03)
95              	(9.77323161e+01 1.71406115e-01 3.07500693e-01)	(8.18180176e+01 1.94014440e-01 3.09755253e-01)	(1.59142984e+01 -2.26083255e-02 -2.25456034e-03)
96              	(9.70993210e+01 1.93126866e-01 3.35603420e-01)	(8.12398562e+01 2.14845590e-01 3.37901655e-01)	(1.58594648e+01 -2.17187239e-02 -2.29823465e-03)
97              	(9.64781229e+01 2.12197232e-01 3.60965854e-01)	(8.06725477e+01 2.33045671e-01 3.63287601e-01)	(1.58055752e+01 -2.08484389e-02 -2.32174701e-03)
98              	(9.59190241e+01 2.31373074e-01 3.88305107e-01)	(8.01662472e+01 2.51374855e-01 3.90637949e-01)	(1.57527769e+01 -2.00017811e-02 -2.33284216e-03)
99              	(9.54477634e+01 2.49566983e-01 4.18448684e-01)	(7.97465400e+01 2.68751057e-01 4.20777610e-01)	(1.57012234e+01 -1.91840740e-02 -2.32892641e-03)
100             	(9.50651731e+01 2.65248231e-01 4.45762847e-01)	(7.94141585e+01 2.83639566e-01 4.48072519e-01)	(1.56510146e+01 -1.83913355e-02 -2.30967191e-03)
101             	(9.47270550e+01 2.77679631e-01 4.69951830e-01)	(7.91248241e+01 2.95321099e-01 4.72241877e-01)	(1.56022309e+01 -1.76414683e-02 -2.29004663e-03)
102             	(9.43824935e+01 2.89402661e-01 4.96732108e-01)	(7.88276262e+01 3.06323284e-01 4.98981770e-01)	(1.55548673e+01 -1.69206225e-02 -2.24966255e-03)
103             	(9.40222627e+01 2.98737639e-01 5.22613188e-01)	(7.85133789e+01 3.14971912e-01 5.24815634e-01)	(1.55088838e+01 -1.62342731e-02 -2.20244620e-03)
104             	(9.36746545e+01 3.08391555e-01 5.51876941e-01)	(7.82103781e+01 3.23982074e-01 5.54037151e-01)	(1.54642764e+01 -1.55905192e-02 -2.16021058e-03)
105             	(9.33594528e+01 3.19310127e-01 5.83938539e-01)	(7.79383601e+01 3.34308809e-01 5.86082143e-01)	(1.54210927e+01 -1.49986812e-02 -2.14360404e-03)
106             	(9.30763572e+01 3.32990478e-01 6.17367574e-01)	(7.76969893e+01 3.47443150e-01 6.19507226e-01)	(1.53793680e+01 -1.44526717e-02 -2.13965181e-03)
107             	(9.28048617e+01 3.43554177e-01 6.46748416e-01)	(7.74657114e+01 3.57471840e-01 6.48847626e-01)	(1.53391503e+01 -1.39176636e-02 -2.09921041e-03)
108             	(9.25309091e+01 3.52154514e-01 6.69554859e-01)	(7.72304034e+01 3.65567738e-01 6.71612837e-01)	(1.53005057e+01 -1.34132247e-02 -2.05797812e-03)
109             	(9.22419584e+01 3.61976604e-01 6.96045660e-01)	(7.69784831e+01 3.74920282e-01 6.98034474e-01)	(1.52634753e+01 -1.29436784e-02 -1.98881396e-03)
110             	(9.19316620e+01 3.73426100e-01 7.30501729e-01)	(7.67035920e+01 3.85926612e-01 7.32434416e-01)	(1.52280701e+01 -1.25005121e-02 -1.93268670e-03)
111             	(9.16040323e+01 3.86153381e-01 7.66880126e-01)	(7.64097694e+01 3.98222985e-01 7.68738702e-01)	(1.51942629e+01 -1.20696041e-02 -1.85857556e-03)
112             	(9.12827491e+01 3.99967877e-01 8.00348834e-01)	(7.61207504e+01 4.11620633e-01 8.02102891e-01)	(1.51619987e+01 -1.16527559e-02 -1.75405731e-03)
113             	(9.09899005e+01 4.16764996e-01 8.28891782e-01)	(7.58586573e+01 4.28020163e-01 8.30517016e-01)	(1.51312432e+01 -1.12551672e-02 -1.62523350e-03)
114             	(9.07188231e+01 4.38604393e-01 8.66566991e-01)	(7.56168624e+01 4.49478689e-01 8.68063830e-01)	(1.51019606e+01 -1.08742956e-02 -1.49683888e-03)
115             	(9.04523102e+01 4.66285424e-01 9.11941035e-01)	(7.53781859e+01 4.76800659e-01 9.13306892e-01)	(1.50741243e+01 -1.05152348e-02 -1.36585694e-03)
116             	(9.01859283e+01 4.96804635e-01 9.64565813e-01)	(7.51382106e+01 5.06975074e-01 9.65784552e-01)	(1.50477177e+01 -1.01704399e-02 -1.21873931e-03)
117             	(8.99368326e+01 5.34912397e-01 1.03095151e+00)	(7.49140940e+01 5.44754744e-01 1.03201346e+00)	(1.50227386e+01 -9.84234706e-03 -1.06194969e-03)
118             	(8.97237064e+01 5.80130635e-01 1.10615890e+00)	(7.47244811e+01 5.89663899e-01 1.10706960e+00)	(1.49992253e+01 -9.53326459e-03 -9.10697389e-04)
119             	(8.95245571e+01 6.34401476e-01 1.19922267e+00)	(7.45473525e+01 6.43637507e-01 1.19997247e+00)	(1.49772046e+01 -9.23603092e-03 -7.49806420e-04)
120             	(8.93298781e+01 6.94953591e-01 1.30215881e+00)	(7.43731610e+01 7.03913687e-01 1.30273139e+00)	(1.49567171e+01 -8.96009567e-03 -5.72576705e-04)
121             	(8.91444233e+01 7.59410584e-01 1.41499196e+00)	(7.42066106e+01 7.68093022e-01 1.41537686e+00)	(1.49378126e+01 -8.68243739e-03 -3.84905732e-04)
122             	(8.89875472e+01 8.19060572e-01 1.52787937e+00)	(7.40670046e+01 8.27459657e-01 1.52806996e+00)	(1.49205427e+01 -8.39908535e-03 -1.90592637e-04)
123             	(8.88955235e+01 8.72817724e-01 1.63465578e+00)	(7.39905313e+01 8.80956097e-01 1.63463927e+00)	(1.49049922e+01 -8.13837262e-03 1.65130549e-05)
124             	(8.89049950e+01 9.26481404e-01 1.73533234e+00)	(7.40137615e+01 9.34363857e-01 1.73509327e+00)	(1.48912335e+01 -7.88245334e-03 2.39070228e-04)
125             	(8.90018146e+01 9.84548078e-01 1.83981941e+00)	(7.41225255e+01 9.92172294e-01 1.83935382e+00)	(1.48792891e+01 -7.62421601e-03 4.65586453e-04)
126             	(8.91613653e+01 1.04189495e+00 1.93920706e+00)	(7.42921738e+01 1.04926477e+00 1.93851339e+00)	(1.48691915e+01 -7.36981629e-03 6.93664624e-04)
127             	(8.93622776e+01 1.09921705e+00 2.03659952e+00)	(7.45013040e+01 1.10633366e+00 2.03567803e+00)	(1.48609736e+01 -7.11660665e-03 9.21493448e-04)
128             	(8.95818225e+01 1.15495040e+00 2.13339133e+00)	(7.47271339e+01 1.16182138e+00 2.13224875e+00)	(1.48546886e+01 -6.87097796e-03 1.14258387e-03)
129             	(8.98162947e+01 1.20831822e+00 2.22778370e+00)	(7.49659232e+01 1.21494947e+00 2.22642900e+00)	(1.48503715e+01 -6.63124932e-03 1.35469905e-03)
130             	(9.00691961e+01 1.26065152e+00 2.32371327e+00)	(7.52211769e+01 1.26704990e+00 2.32215951e+00)	(1.48480191e+01 -6.39838710e-03 1.55376073e-03)
131             	(9.03443433e+01 1.31111453e+00 2.41546604e+00)	(7.54967387e+01 1.31728464e+00 2.41372184e+00)	(1.48476046e+01 -6.17010111e-03 1.74420098e-03)
132             	(9.06426577e+01 1.35960219e+00 2.50377719e+00)	(7.57935605e+01 1.36555012e+00 2.50184996e+00)	(1.48490972e+01 -5.94793177e-03 1.92723001e-03)
133             	(9.09504557e+01 1.40889862e+00 2.59484127e+00)	(7.60979859e+01 1.41461737e+00 2.59273128e+00)	(1.48524698e+01 -5.71875883e-03 2.10998594e-03)
134             	(9.12552858e+01 1.46234828e+00 2.69120352e+00)	(7.63975971e+01 1.46784178e+00 2.68889875e+00)	(1.48576887e+01 -5.49349657e-03 2.30476793e-03)
135             	(9.15574369e+01 1.51967678e+00 2.79537938e+00)	(7.66927524e+01 1.52494975e+00 2.79288646e+00)	(1.48646845e+01 -5.27296917e-03 2.49292432e-03)
136             	(9.18656875e+01 1.58088837e+00 2.90790371e+00)	(7.69923110e+01 1.58594296e+00 2.90523717e+00)	(1.48733765e+01 -5.05459436e-03 2.66654232e-03)
137             	(9.21945837e+01 1.64364755e+00 3.02305472e+00)	(7.73108870e+01 1.64848723e+00 3.02023072e+00)	(1.48836967e+01 -4.83968019e-03 2.82399915e-03)
138             	(9.25533973e+01 1.70659404e+00 3.13695007e+00)	(7.76578187e+01 1.71121834e+00 3.13397349e+00)	(1.48955786e+01 -4.62430785e-03 2.97657568e-03)
139             	(9.29434468e+01 1.76863032e+00 3.25148886e+00)	(7.80345092e+01 1.77303613e+00 3.24836834e+00)	(1.49089376e+01 -4.40580558e-03 3.12051665e-03)
140             	(9.33554164e+01 1.83076622e+00 3.36995681e+00)	(7.84317210e+01 1.83495661e+00 3.36670037e+00)	(1.49236954e+01 -4.19038888e-03 3.25643460e-03)
141             	(9.37701894e+01 1.89570808e+00 3.49448511e+00)	(7.88304237e+01 1.89968295e+00 3.49110266e+00)	(1.49397658e+01 -3.97487268e-03 3.38245697e-03)
142             	(9.41729360e+01 1.96576216e+00 3.62741401e+00)	(7.92158858e+01 1.96953210e+00 3.62391118e+00)	(1.49570502e+01 -3.76993409e-03 3.50283295e-03)
143             	(9.45550205e+01 2.04091557e+00 3.76844461e+00)	(7.95795800e+01 2.04448441e+00 3.76482853e+00)	(1.49754404e+01 -3.56883178e-03 3.61607560e-03)
144             	(9.49123061e+01 2.11853468e+00 3.91563054e+00)	(7.99174826e+01 2.12190530e+00 3.91189931e+00)	(1.49948235e+01 -3.37062165e-03 3.73122722e-03)
145             	(9.52409124e+01 2.19755237e+00 4.06732316e+00)	(8.02258272e+01 2.20073300e+00 4.06348606e+00)	(1.50150852e+01 -3.18062564e-03 3.83710267e-03)
146             	(9.55329866e+01 2.27761394e+00 4.22181212e+00)	(8.04968702e+01 2.28061435e+00 4.21788412e+00)	(1.50361164e+01 -3.00041479e-03 3.92799395e-03)
147             	(9.57782486e+01 2.35940479e+00 4.37854718e+00)	(8.07204118e+01 2.36223525e+00 4.37453873e+00)	(1.50578368e+01 -2.83045296e-03 4.00844973e-03)
148             	(9.59649534e+01 2.44381983e+00 4.53916364e+00)	(8.08848077e+01 2.44648604e+00 4.53508784e+00)	(1.50801457e+01 -2.66620825e-03 4.07580054e-03)
149             	(9.60821016e+01 2.53179854e+00 4.70669515e+00)	(8.09791555e+01 2.53430760e+00 4.70256005e+00)	(1.51029461e+01 -2.50906826e-03 4.13510329e-03)
150             	(9.61190381e+01 2.62363737e+00 4.88357071e+00)	(8.09929028e+01 2.62599585e+00 4.87938148e+00)	(1.51261353e+01 -2.35847856e-03 4.18922780e-03)
151             	(9.60674039e+01 2.71849725e+00 5.07058489e+00)	(8.09177815e+01 2.72071422e+00 5.06634934e+00)	(1.51496223e+01 -2.21696507e-03 4.23554512e-03)
152             	(9.59233346e+01 2.81601872e+00 5.26599998e+00)	(8.07500309e+01 2.81810478e+00 5.26171903e+00)	(1.51733037e+01 -2.08605868e-03 4.28094999e-03)
153             	(9.56859111e+01 2.91620877e+00 5.46727091e+00)	(8.04888288e+01 2.91817147e+00 5.46294056e+00)	(1.51970823e+01 -1.96269405e-03 4.33035114e-03)
154             	(9.53576956e+01 3.01976773e+00 5.67401723e+00)	(8.01368167e+01 3.02161753e+00 5.66962901e+00)	(1.52208789e+01 -1.84980447e-03 4.38821714e-03)
155             	(9.49435666e+01 3.12664597e+00 5.88864441e+00)	(7.96989516e+01 3.12838982e+00 5.88419428e+00)	(1.52446150e+01 -1.74384625e-03 4.45013287e-03)
156             	(9.44470665e+01 3.23811175e+00 6.11431311e+00)	(7.91788399e+01 3.23975637e+00 6.10979093e+00)	(1.52682266e+01 -1.64461433e-03 4.52217605e-03)
157             	(9.38718150e+01 3.35514472e+00 6.35295071e+00)	(7.85801588e+01 3.35669513e+00 6.34834742e+00)	(1.52916562e+01 -1.55040605e-03 4.60329841e-03)
158             	(9.32248440e+01 3.47867657e+00 6.60350286e+00)	(7.79099897e+01 3.48013184e+00 6.59880709e+00)	(1.53148543e+01 -1.45527430e-03 4.69576566e-03)
159             	(9.25160051e+01 3.60797118e+00 6.86520525e+00)	(7.71782159e+01 3.60932949e+00 6.86039995e+00)	(1.53377892e+01 -1.35831370e-03 4.80529603e-03)
160             	(9.17560980e+01 3.74257075e+00 7.13843953e+00)	(7.63956547e+01 3.74383305e+00 7.13350789e+00)	(1.53604433e+01 -1.26230012e-03 4.93164266e-03)
161             	(9.09577792e+01 3.88274279e+00 7.42469806e+00)	(7.55749731e+01 3.88391268e+00 7.41962361e+00)	(1.53828061e+01 -1.16989453e-03 5.07445121e-03)
162             	(9.01334900e+01 4.02933938e+00 7.72617897e+00)	(7.47286154e+01 4.03042236e+00 7.72094532e+00)	(1.54048746e+01 -1.08298449e-03 5.23365447e-03)
163             	(8.92982322e+01 4.18228964e+00 8.04367095e+00)	(7.38715779e+01 4.18329192e+00 8.03826035e+00)	(1.54266543e+01 -1.00227301e-03 5.41059970e-03)
164             	(8.84659302e+01 4.34190763e+00 8.37636410e+00)	(7.30177763e+01 4.34283096e+00 8.37075544e+00)	(1.54481539e+01 -9.23329286e-04 5.60865537e-03)
165             	(8.76467514e+01 4.51039767e+00 8.72335184e+00)	(7.21773598e+01 4.51124070e+00 8.71751911e+00)	(1.54693915e+01 -8.43037877e-04 5.83272185e-03)
166             	(8.68502715e+01 4.68765187e+00 9.08480521e+00)	(7.13598847e+01 4.68841002e+00 9.07872129e+00)	(1.54903868e+01 -7.58152706e-04 6.08391956e-03)
167             	(8.60911049e+01 4.87129170e+00 9.46120680e+00)	(7.05799479e+01 4.87196116e+00 9.45484586e+00)	(1.55111570e+01 -6.69454045e-04 6.36094134e-03)
168             	(8.53832372e+01 5.06053622e+00 9.85161819e+00)	(6.98515143e+01 5.06111401e+00 9.84495239e+00)	(1.55317229e+01 -5.77783667e-04 6.66579967e-03)
169             	(8.47379421e+01 5.25662126e+00 1.02542867e+01)	(6.91858365e+01 5.25710531e+00 1.02472906e+01)	(1.55521056e+01 -4.84045756e-04 6.99616622e-03)
170             	(8.41636176e+01 5.46081755e+00 1.06681796e+01)	(6.85912861e+01 5.46120560e+00 1.06608280e+01)	(1.55723315e+01 -3.88045624e-04 7.35161142e-03)
171             	(8.36649679e+01 5.67269089e+00 1.10935682e+01)	(6.80725414e+01 5.67298005e+00 1.10858373e+01)	(1.55924265e+01 -2.89166840e-04 7.73089445e-03)
172             	(8.32440785e+01 5.89153555e+00 1.15330856e+01)	(6.76316686e+01 5.89172197e+00 1.15249518e+01)	(1.56124099e+01 -1.86419330e-04 8.13387634e-03)
173             	(8.29017415e+01 6.11742571e+00 1.19882622e+01)	(6.72694413e+01 6.11750335e+00 1.19797009e+01)	(1.56323002e+01 -7.76432647e-05 8.56130061e-03)
174             	(8.26376095e+01 6.35023814e+00 1.24600335e+01)	(6.69854886e+01 6.35019746e+00 1.24510226e+01)	(1.56521209e+01 4.06839972e-05 9.01089317e-03)
175             	(8.24494497e+01 6.58984346e+00 1.29482150e+01)	(6.67775596e+01 6.58967244e+00 1.29387282e+01)	(1.56718901e+01 1.71018797e-04 9.48682283e-03)
176             	(8.23322401e+01 6.83674367e+00 1.34513473e+01)	(6.66406240e+01 6.83642843e+00 1.34413595e+01)	(1.56916161e+01 3.15242264e-04 9.98777339e-03)
177             	(8.22781722e+01 7.09077069e+00 1.39676869e+01)	(6.65668566e+01 7.09029340e+00 1.39571735e+01)	(1.57113156e+01 4.77293518e-04 1.05134452e-02)
178             	(8.22760417e+01 7.35146220e+00 1.44953490e+01)	(6.65450466e+01 7.35080337e+00 1.44842772e+01)	(1.57309951e+01 6.58825393e-04 1.10718651e-02)
179             	(8.23133646e+01 7.61945900e+00 1.50335618e+01)	(6.65627151e+01 7.61859985e+00 1.50219002e+01)	(1.57506494e+01 8.59142071e-04 1.16616386e-02)
180             	(8.23790204e+01 7.89573225e+00 1.55828397e+01)	(6.66087484e+01 7.89464819e+00 1.55705600e+01)	(1.57702721e+01 1.08405710e-03 1.22796705e-02)
181             	(8.24618000e+01 8.18119702e+00 1.61456273e+01)	(6.66719475e+01 8.17986547e+00 1.61326956e+01)	(1.57898524e+01 1.33155474e-03 1.29317924e-02)
182             	(8.25535686e+01 8.47680050e+00 1.67236120e+01)	(6.67441955e+01 8.47519787e+00 1.67099899e+01)	(1.58093731e+01 1.60263449e-03 1.36221019e-02)
183             	(8.26476678e+01 8.78325534e+00 1.73174284e+01)	(6.68188509e+01 8.78135504e+00 1.73030743e+01)	(1.58288169e+01 1.90030264e-03 1.43540282e-02)
184             	(8.27385475e+01 9.10032576e+00 1.79266013e+01)	(6.68903739e+01 9.09809991e+00 1.79114721e+01)	(1.58481736e+01 2.22584809e-03 1.51291319e-02)
185             	(8.28208769e+01 9.42726341e+00 1.85502302e+01)	(6.69534520e+01 9.42468383e+00 1.85342802e+01)	(1.58674249e+01 2.57957467e-03 1.59500017e-02)