# Force coefficients
# dragDir       : (1.00000000e+00 0.00000000e+00 0.00000000e+00)
# sideDir       : (0.00000000e+00 0.00000000e+00 -1.00000000e+00)
# liftDir       : (0.00000000e+00 1.00000000e+00 0.00000000e+00)
# rollAxis      : (1.00000000e+00 0.00000000e+00 0.00000000e+00)
# pitchAxis     : (0.00000000e+00 0.00000000e+00 -1.00000000e+00)
# yawAxis       : (0.00000000e+00 1.00000000e+00 0.00000000e+00)
# magUInf       : 1.00000000e+00
# lRef          : 3.71900030e+00
# Aref          : 3.51160410e+00
# CofR          : (0.00000000e+00 0.00000000e+00 0.00000000e+00)
#
# Time          	Cd              	Cs              	Cl              	CmRoll          	CmPitch         	CmYaw           	Cd(f)           	Cd(r)           	Cs(f)           	Cs(r)           	Cl(f)           	Cl(r)           
1               	3.59360484e+00	-3.90385246e-04	5.26058878e-04	-1.13451881e-08	-2.76877583e-05	-8.25102264e-05	1.79680241e+00	1.79680243e+00	-2.77702849e-04	-1.12682396e-04	2.35341681e-04	2.90717197e-04
2               	3.26533058e+00	-3.46386526e-04	6.27386983e-04	-5.68345144e-09	-1.72334417e-05	-9.33083243e-05	1.63266528e+00	1.63266529e+00	-2.66501587e-04	-7.98849388e-05	2.96460050e-04	3.30926933e-04
3               	8.56741405e-01	-4.19939895e-05	3.75725118e-04	1.22534242e-08	4.11302031e-05	-1.71147862e-05	4.28370715e-01	4.28370690e-01	-3.81117809e-05	-3.88220859e-06	2.28992762e-04	1.46732356e-04
4               	-1.43839366e+00	7.90909560e-05	-1.62738224e-04	2.18837572e-08	1.76800300e-05	7.86951544e-05	-7.19196807e-01	-7.19196851e-01	1.18240632e-04	-3.91496764e-05	-6.36890820e-05	-9.90491419e-05
5               	-2.03026332e+00	3.37341702e-05	-4.38994556e-04	1.00221317e-08	-1.23253054e-06	9.80665335e-05	-1.01513165e+00	-1.01513167e+00	1.14933619e-04	-8.11994484e-05	-2.20729808e-04	-2.18264747e-04
6               	-1.01260608e+00	-1.54655187e-04	-4.47514347e-04	1.93044086e-08	-5.15119603e-05	6.82582516e-05	-5.06303021e-01	-5.06303060e-01	-9.06934208e-06	-1.45585845e-04	-2.75269134e-04	-1.72245213e-04
7               	3.92948375e-01	-2.41589908e-04	-3.16335622e-04	4.06847691e-08	-9.99758951e-05	1.15626371e-05	1.96474228e-01	1.96474147e-01	-1.09232317e-04	-1.32357591e-04	-2.58143706e-04	-5.81919158e-05
8               	1.11879374e+00	-2.56057416e-04	1.56468149e-04	4.14363530e-08	-7.47802113e-06	-2.11056916e-06	5.59396910e-01	5.59396827e-01	-1.30139277e-04	-1.25918139e-04	7.07560535e-05	8.57120957e-05
9               	8.87033573e-01	6.03517762e-05	4.83571774e-04	3.68187471e-08	9.02310488e-05	-4.82464985e-05	4.43516823e-01	4.43516750e-01	-1.80706104e-05	7.84223866e-05	3.32016936e-04	1.51554838e-04
10              	1.74588880e-01	2.36963285e-04	5.17578734e-04	8.29827424e-08	1.36641817e-04	-4.08586224e-05	8.72945229e-02	8.72943570e-02	7.76230202e-05	1.59340265e-04	3.95431184e-04	1.22147550e-04
11              	-3.82185633e-01	2.85019504e-04	1.07403843e-04	8.25208012e-08	5.21042380e-05	-3.71443113e-05	-1.91092734e-01	-1.91092899e-01	1.05365441e-04	1.79654063e-04	1.05806159e-04	1.59768322e-06
12              	-4.67504028e-01	7.15672061e-05	-2.50417895e-04	6.21671059e-08	-5.54088374e-05	-4.85431848e-08	-2.33751952e-01	-2.33752076e-01	3.57350599e-05	3.58321463e-05	-1.80617785e-04	-6.98001099e-05
13              	-1.72567397e-01	-1.87441783e-04	-4.46199252e-04	6.25471129e-08	-1.19412226e-04	3.66395664e-05	-8.62836359e-02	-8.62837610e-02	-5.70813253e-05	-1.30360458e-04	-3.42511852e-04	-1.03687400e-04
14              	1.73401672e-01	-2.30923063e-04	-3.28222858e-04	6.35249252e-08	-1.00508779e-04	3.57876112e-05	8.67008993e-02	8.67007723e-02	-7.96739206e-05	-1.51249143e-04	-2.64620208e-04	-6.36026503e-05
15              	3.19398334e-01	-5.66776219e-05	-1.17942768e-04	6.83251937e-08	-4.58871176e-05	8.97007981e-07	1.59699235e-01	1.59699098e-01	-2.74418030e-05	-2.92358189e-05	-1.04858502e-04	-1.30842663e-05
16              	2.36385718e-01	1.45771611e-04	3.11453441e-05	5.19478743e-08	5.09333456e-06	-2.93708349e-05	1.18192911e-01	1.18192807e-01	4.35149704e-05	1.02256640e-04	2.06660066e-05	1.04793375e-05
17              	5.89768529e-02	2.21216617e-04	6.67462886e-06	3.63297519e-08	9.21373364e-06	-3.54291821e-05	2.94884628e-02	2.94883901e-02	7.51791263e-05	1.46037491e-04	1.25510481e-05	-5.87641921e-06
18              	-6.15345998e-02	1.58995011e-04	-9.53557745e-05	2.32223094e-08	-1.91199631e-05	-2.61457156e-05	-3.07672767e-02	-3.07673231e-02	5.33517900e-05	1.05643221e-04	-6.67978503e-05	-2.85579241e-05
19              	-6.44610025e-02	2.39782503e-05	-1.98543408e-04	8.58448779e-09	-5.79942829e-05	-9.05520102e-06	-3.22304927e-02	-3.22305099e-02	2.93392411e-06	2.10443261e-05	-1.57265987e-04	-4.12774213e-05
20              	1.08640490e-02	-8.13119525e-05	-2.19963098e-04	-4.35133797e-09	-7.33230430e-05	5.84364021e-06	5.43202014e-03	5.43202884e-03	-3.48123360e-05	-4.64996165e-05	-1.83304592e-04	-3.66585058e-05
21              	8.64232942e-02	-8.65664654e-05	-1.43093464e-04	-1.76767521e-08	-5.11239609e-05	8.85474918e-06	4.32116294e-02	4.32116648e-02	-3.44284835e-05	-5.21379819e-05	-1.22670693e-04	-2.04227713e-05
22              	1.10733210e-01	-5.76355988e-06	-6.58927553e-05	-2.85040428e-08	-2.15489432e-05	-1.02868999e-06	5.53665766e-02	5.53666336e-02	-3.91046993e-06	-1.85308995e-06	-5.44953209e-05	-1.13974345e-05
23              	8.47573340e-02	8.86322163e-05	-6.04011129e-05	-3.55335873e-08	-1.10586055e-05	-1.32523625e-05	4.23786315e-02	4.23787025e-02	3.10637456e-05	5.75684707e-05	-4.12591619e-05	-1.91419509e-05
24              	4.29822199e-02	1.28304763e-04	-1.14943269e-04	-3.93858353e-08	-2.51167863e-05	-1.70329580e-05	2.14910706e-02	2.14911494e-02	4.71194235e-05	8.11853394e-05	-8.25884209e-05	-3.23548483e-05
25              	1.90475377e-02	9.47005887e-05	-1.85315029e-04	-4.18838904e-08	-5.06590902e-05	-1.20760519e-05	9.52372697e-03	9.52381073e-03	3.52742424e-05	5.94263462e-05	-1.43316605e-04	-4.19984244e-05
26              	2.25303737e-02	2.50000054e-05	-2.04673680e-04	-4.45567404e-08	-6.43647315e-05	-3.67708006e-06	1.12651423e-02	1.12652314e-02	8.82292266e-06	1.61770828e-05	-1.66701571e-04	-3.79721083e-05
27              	4.12220522e-02	-2.44849448e-05	-1.58746649e-04	-4.62001658e-08	-5.60294948e-05	1.81380047e-06	2.06109799e-02	2.06110723e-02	-1.04286719e-05	-1.40562729e-05	-1.35402819e-04	-2.33438297e-05
28              	5.71008005e-02	-2.51538466e-05	-8.76094897e-05	-4.65148951e-08	-3.52361315e-05	9.95919933e-07	2.85503537e-02	2.85504468e-02	-1.15810034e-05	-1.35728433e-05	-7.90408763e-05	-8.56861333e-06
29              	6.02684019e-02	8.32734821e-06	-5.10903749e-05	-4.54343826e-08	-2.13046891e-05	-3.73007843e-06	3.01341555e-02	3.01342464e-02	4.33595674e-07	7.89375253e-06	-4.68498766e-05	-4.24049837e-06
30              	5.27276416e-02	4.29610918e-05	-7.97283370e-05	-4.36858834e-08	-2.64415146e-05	-7.25002635e-06	2.63637771e-02	2.63638645e-02	1.42305195e-05	2.87305722e-05	-6.63056831e-05	-1.34226539e-05
31              	4.30156790e-02	5.15032721e-05	-1.45184737e-04	-4.24650022e-08	-4.45028119e-05	-5.34315855e-06	2.15077970e-02	2.15078820e-02	2.04084775e-05	3.10947946e-05	-1.17095181e-04	-2.80895568e-05
32              	3.82364465e-02	3.32847507e-05	-1.86654500e-04	-4.16301547e-08	-5.79285816e-05	9.04610454e-07	1.91181816e-02	1.91182649e-02	1.75469858e-05	1.57377649e-05	-1.51255831e-04	-3.53986683e-05
33              	3.98131590e-02	7.64863450e-06	-1.66547991e-04	-3.99679443e-08	-5.44282934e-05	6.21501760e-06	1.99065395e-02	1.99066195e-02	1.00393349e-05	-2.39070035e-06	-1.37702289e-04	-2.88457019e-05
34              	4.45324433e-02	-8.39172695e-06	-1.05022365e-04	-3.73328756e-08	-3.80119578e-05	7.79822580e-06	2.22661843e-02	2.22662590e-02	3.60236233e-06	-1.19940893e-05	-9.05231402e-05	-1.44992245e-05
35              	4.81501321e-02	-5.60779485e-06	-4.44472133e-05	-3.28619774e-08	-1.95688720e-05	5.70593287e-06	2.40750332e-02	2.40750989e-02	2.90203545e-06	-8.50983030e-06	-4.17924786e-05	-2.65473466e-06
36              	4.85886882e-02	7.88168004e-06	-1.99595216e-05	-2.70090579e-08	-9.73028067e-06	2.68457116e-06	2.42943171e-02	2.42943711e-02	6.62541117e-06	1.25626886e-06	-1.97100415e-05	-2.49480129e-07
37              	4.65203902e-02	1.83612250e-05	-3.15292757e-05	-2.03604362e-08	-9.36296700e-06	1.81989261e-06	2.32601748e-02	2.32602155e-02	1.10005051e-05	7.36071987e-06	-2.51276049e-05	-6.40167086e-06
38              	4.39898527e-02	1.71089862e-05	-4.46657744e-05	-1.36189934e-08	-9.29598342e-06	4.13793614e-06	2.19949127e-02	2.19949399e-02	1.26924292e-05	4.41655695e-06	-3.16288706e-05	-1.30369038e-05
39              	4.26257037e-02	7.23354258e-06	-2.57135494e-05	-6.99790793e-09	7.52090327e-08	8.33863237e-06	2.13128449e-02	2.13128588e-02	1.19554037e-05	-4.72186108e-06	-1.27815657e-05	-1.29319838e-05
40              	4.27694686e-02	-2.41635097e-06	2.97748793e-05	-1.14359712e-09	2.05064180e-05	1.19674570e-05	2.13847331e-02	2.13847354e-02	1.07592815e-05	-1.31756325e-05	3.53938577e-05	-5.61897836e-06
41              	4.36976165e-02	-6.66367313e-06	1.02874604e-04	3.42523053e-09	4.67030079e-05	1.33694567e-05	2.18488117e-02	2.18488048e-02	1.00376202e-05	-1.67012933e-05	9.81403100e-05	4.73429414e-06
42              	4.44574074e-02	-6.87194710e-06	1.66985049e-04	7.07234238e-09	7.07178012e-05	1.31714506e-05	2.22287108e-02	2.22286966e-02	9.73547703e-06	-1.66074241e-05	1.54210326e-04	1.27747235e-05
43              	4.45464371e-02	-7.16933314e-06	2.06335776e-04	1.00561312e-08	8.75704144e-05	1.30033384e-05	2.22732286e-02	2.22732085e-02	9.41867179e-06	-1.65880049e-05	1.90738302e-04	1.55974735e-05
44              	4.40680452e-02	-1.04923119e-05	2.26995762e-04	1.20940538e-08	9.82584260e-05	1.39472241e-05	2.20340347e-02	2.20340105e-02	8.70106816e-06	-1.91933800e-05	2.11756307e-04	1.52394552e-05
45              	4.34599728e-02	-1.58681225e-05	2.43601661e-04	1.33590229e-08	1.07086276e-04	1.60837815e-05	2.17299998e-02	2.17299730e-02	8.14972025e-06	-2.40178427e-05	2.28887106e-04	1.47145546e-05
46              	4.31027416e-02	-2.14004339e-05	2.66417349e-04	1.48926920e-08	1.16982467e-04	1.84617104e-05	2.15513857e-02	2.15513559e-02	7.76149347e-06	-2.91619274e-05	2.50191141e-04	1.62262078e-05
47              	4.31028216e-02	-2.37643444e-05	2.92559533e-04	1.60974591e-08	1.27451421e-04	1.99800345e-05	2.15514269e-02	2.15513947e-02	8.09786235e-06	-3.18622067e-05	2.73731188e-04	1.88283450e-05
48              	4.33316917e-02	-2.33815226e-05	3.12665458e-04	1.72922705e-08	1.35678664e-04	2.01837222e-05	2.16658631e-02	2.16658286e-02	8.49296091e-06	-3.18744836e-05	2.92011393e-04	2.06540646e-05
49              	4.36135315e-02	-2.20627916e-05	3.19637740e-04	1.85043161e-08	1.39388241e-04	1.95349399e-05	2.18067842e-02	2.18067472e-02	8.50354414e-06	-3.05663357e-05	2.99207111e-04	2.04306287e-05
50              	4.38503682e-02	-2.13621226e-05	3.13138446e-04	1.97070990e-08	1.38438606e-04	1.87305340e-05	2.19252038e-02	2.19251644e-02	8.04947268e-06	-2.94115953e-05	2.95007829e-04	1.81306168e-05
51              	4.40553861e-02	-2.05785672e-05	2.97499940e-04	2.13139834e-08	1.34263175e-04	1.85307696e-05	2.20277144e-02	2.20276717e-02	8.24148602e-06	-2.88200532e-05	2.83013145e-04	1.44867950e-05
52              	4.42808543e-02	-1.91291906e-05	2.77741267e-04	2.31479699e-08	1.28103155e-04	1.87564984e-05	2.21404503e-02	2.21404040e-02	9.19190312e-06	-2.83210937e-05	2.66973789e-04	1.07674782e-05
53              	4.45637312e-02	-1.70833981e-05	2.56114003e-04	2.46488315e-08	1.20389019e-04	1.88778143e-05	2.22818902e-02	2.22818409e-02	1.03361153e-05	-2.74195134e-05	2.48446020e-04	7.66798301e-06
54              	4.49052397e-02	-1.34341356e-05	2.30641124e-04	2.62878601e-08	1.10892648e-04	1.86535557e-05	2.24526462e-02	2.24525936e-02	1.19364879e-05	-2.53706235e-05	2.26213210e-04	4.42791401e-06
55              	4.52753139e-02	-7.94757778e-06	1.98976657e-04	2.76966503e-08	9.92052980e-05	1.80986653e-05	2.26376846e-02	2.26376292e-02	1.41248765e-05	-2.20724542e-05	1.98693626e-04	2.83030348e-07
56              	4.56446525e-02	-1.99711334e-06	1.61786071e-04	2.87205295e-08	8.54513419e-05	1.71636816e-05	2.28223550e-02	2.28222975e-02	1.61651249e-05	-1.81622383e-05	1.66344377e-04	-4.55830635e-06
57              	4.60026163e-02	4.06246048e-06	1.21279721e-04	3.01064591e-08	7.01379823e-05	1.58045232e-05	2.30013382e-02	2.30012780e-02	1.78357535e-05	-1.37732930e-05	1.30777843e-04	-9.49812207e-06
58              	4.63480186e-02	9.41640951e-06	8.10633645e-05	3.16244112e-08	5.42137326e-05	1.41988004e-05	2.31740409e-02	2.31739777e-02	1.89070051e-05	-9.49059561e-06	9.47454148e-05	-1.36820503e-05
59              	4.66727551e-02	1.55427697e-05	4.24109676e-05	3.26645658e-08	3.86263214e-05	1.28815433e-05	2.33364102e-02	2.33363449e-02	2.06529282e-05	-5.11015849e-06	5.98318052e-05	-1.74208376e-05
60              	4.69752835e-02	2.28110566e-05	5.43125362e-06	3.38665152e-08	2.39351307e-05	1.19369764e-05	2.34876756e-02	2.34876079e-02	2.33425047e-05	-5.31448104e-07	2.66507575e-05	-2.12195039e-05
61              	4.72774534e-02	2.85873395e-05	-2.91974300e-05	3.46914602e-08	1.00377917e-05	1.03538158e-05	2.36387614e-02	2.36386920e-02	2.46474855e-05	3.93985398e-06	-4.56092333e-06	-2.46365067e-05
62              	4.75944376e-02	3.25351608e-05	-6.01206673e-05	3.56320519e-08	-3.01522800e-06	8.04177865e-06	2.37972544e-02	2.37971831e-02	2.43093591e-05	8.22580176e-06	-3.30755616e-05	-2.70451056e-05
63              	4.79202585e-02	3.65653448e-05	-8.71957681e-05	3.59807361e-08	-1.43568628e-05	5.89303859e-06	2.39601652e-02	2.39600933e-02	2.41757110e-05	1.23896338e-05	-5.79547469e-05	-2.92410213e-05
64              	4.82406176e-02	3.89612236e-05	-1.08460197e-04	3.65330418e-08	-2.38246506e-05	3.51554535e-06	2.41203453e-02	2.41202723e-02	2.29961571e-05	1.59650664e-05	-7.80547489e-05	-3.04054477e-05
65              	4.85627929e-02	3.93978476e-05	-1.22564337e-04	3.69204978e-08	-3.12839666e-05	9.76609237e-07	2.42814334e-02	2.42813595e-02	2.06755331e-05	1.87223146e-05	-9.25661350e-05	-2.99982017e-05
66              	4.88948243e-02	3.80568776e-05	-1.30561364e-04	3.74286875e-08	-3.63020690e-05	-1.41380979e-06	2.44474496e-02	2.44473747e-02	1.76146290e-05	2.04422486e-05	-1.01582751e-04	-2.89786131e-05
67              	4.92459503e-02	3.45580701e-05	-1.32743493e-04	3.82475843e-08	-3.90756009e-05	-3.52218540e-06	2.46230134e-02	2.46229369e-02	1.37568496e-05	2.08012204e-05	-1.05447347e-04	-2.72961456e-05
68              	4.96132682e-02	3.14078897e-05	-1.31112472e-04	3.87105178e-08	-3.94661635e-05	-4.67126345e-06	2.48066728e-02	2.48065954e-02	1.10326814e-05	2.03752083e-05	-1.05022400e-04	-2.60900727e-05
69              	4.99909309e-02	2.82414750e-05	-1.25361284e-04	3.96511518e-08	-3.79589440e-05	-5.16135654e-06	2.49955051e-02	2.49954258e-02	8.95938095e-06	1.92820940e-05	-1.00639586e-04	-2.47216981e-05
70              	5.03854961e-02	2.23656989e-05	-1.14512103e-04	4.05004877e-08	-3.52860378e-05	-5.97611836e-06	2.51927886e-02	2.51927076e-02	5.20673107e-06	1.71589678e-05	-9.25420892e-05	-2.19700136e-05
71              	5.08008055e-02	1.38080451e-05	-9.94223511e-05	4.06544833e-08	-3.17714443e-05	-7.15010500e-06	2.54004434e-02	2.54003621e-02	-2.46082468e-07	1.40541275e-05	-8.14826198e-05	-1.79397313e-05
72              	5.12288922e-02	3.24122474e-06	-8.19719432e-05	4.08874753e-08	-2.76630017e-05	-8.67071923e-06	2.56144870e-02	2.56144052e-02	-7.05010686e-06	1.02913316e-05	-6.86489733e-05	-1.33229699e-05
73              	5.16663356e-02	-6.67718171e-06	-6.36181908e-05	4.07203044e-08	-2.33601829e-05	-9.75966782e-06	2.58332085e-02	2.58331271e-02	-1.30982587e-05	6.42107697e-06	-5.51692783e-05	-8.44891244e-06
74              	5.21120444e-02	-1.50955130e-05	-4.61616919e-05	4.02526313e-08	-1.90053729e-05	-1.02814267e-05	2.60560625e-02	2.60559820e-02	-1.78291832e-05	2.73367018e-06	-4.20862188e-05	-4.07547311e-06
75              	5.25620957e-02	-2.14381376e-05	-3.02133215e-05	3.96099911e-08	-1.47351784e-05	-1.02142711e-05	2.62810875e-02	2.62810082e-02	-2.09333399e-05	-5.04797646e-07	-2.98418392e-05	-3.71482366e-07
76              	5.30203340e-02	-2.82346667e-05	-1.47790392e-05	3.88745778e-08	-1.11503997e-05	-1.05909761e-05	2.65102059e-02	2.65101281e-02	-2.47083095e-05	-3.52635724e-06	-1.85399193e-05	3.76088008e-06
77              	5.34676171e-02	-3.61043114e-05	7.69769110e-07	3.84410314e-08	-8.58541493e-06	-1.17040750e-05	2.67338470e-02	2.67337701e-02	-2.97562307e-05	-6.34808069e-06	-8.20053038e-06	8.97029949e-06
78              	5.38838286e-02	-4.42046712e-05	1.55299493e-05	3.80680357e-08	-6.91994333e-06	-1.33052492e-05	2.69419524e-02	2.69418762e-02	-3.54075847e-05	-8.79708643e-06	8.45031340e-07	1.46849180e-05
79              	5.42886392e-02	-4.82869122e-05	2.46823169e-05	3.73354203e-08	-4.71098862e-06	-1.38477810e-05	2.71443569e-02	2.71442823e-02	-3.79912371e-05	-1.02956751e-05	7.63016985e-06	1.70521471e-05
80              	5.46749912e-02	-5.02722662e-05	2.95407732e-05	3.64820166e-08	-2.49772817e-06	-1.39364784e-05	2.73375321e-02	2.73374591e-02	-3.90726115e-05	-1.11996547e-05	1.22726584e-05	1.72681147e-05
81              	5.50102725e-02	-5.27990789e-05	3.32270210e-05	3.55303881e-08	-1.20457405e-06	-1.44386051e-05	2.75051718e-02	2.75051007e-02	-4.08381446e-05	-1.19609343e-05	1.54089364e-05	1.78180845e-05
82              	5.53169116e-02	-5.45645491e-05	3.53481077e-05	3.43584705e-08	-5.94167328e-07	-1.49565130e-05	2.76584901e-02	2.76584214e-02	-4.22387875e-05	-1.23257616e-05	1.70798865e-05	1.82682212e-05
83              	5.55915026e-02	-5.58840686e-05	3.54013006e-05	3.32649940e-08	-2.30879149e-07	-1.55312818e-05	2.77957846e-02	2.77957180e-02	-4.34733161e-05	-1.24107525e-05	1.74697711e-05	1.79315294e-05
84              	5.58108822e-02	-5.77691891e-05	3.46690700e-05	3.21309242e-08	-1.44133285e-07	-1.64119961e-05	2.79054732e-02	2.79054090e-02	-4.52965906e-05	-1.24725985e-05	1.71904017e-05	1.74786683e-05
85              	5.59559805e-02	-6.03089949e-05	3.34770758e-05	3.12429979e-08	-1.21870587e-07	-1.74948004e-05	2.79780215e-02	2.79779590e-02	-4.76492979e-05	-1.26596970e-05	1.66166673e-05	1.68604085e-05
86              	5.60423320e-02	-6.34445109e-05	3.21769177e-05	3.04530153e-08	-9.88409348e-08	-1.86390462e-05	2.80211965e-02	2.80211356e-02	-5.03613017e-05	-1.30832093e-05	1.59896179e-05	1.61872998e-05
87              	5.60926121e-02	-6.83977536e-05	3.21164801e-05	2.98797672e-08	-6.51196590e-07	-2.04228898e-05	2.80463359e-02	2.80462762e-02	-5.46217666e-05	-1.37759870e-05	1.54070434e-05	1.67094366e-05
88              	5.61021165e-02	-7.62825220e-05	3.51561912e-05	2.93919066e-08	-2.33995347e-06	-2.32249282e-05	2.80510876e-02	2.80510289e-02	-6.13661891e-05	-1.49163328e-05	1.52381421e-05	1.99180491e-05
89              	5.60282433e-02	-8.88672456e-05	4.22162785e-05	2.88505322e-08	-5.26712159e-06	-2.75418978e-05	2.80141505e-02	2.80140928e-02	-7.19755206e-05	-1.68917250e-05	1.58410177e-05	2.63752608e-05
90              	5.58393468e-02	-1.03885903e-04	5.11560820e-05	2.82871517e-08	-8.58934944e-06	-3.25454740e-05	2.79197017e-02	2.79196451e-02	-8.44884253e-05	-1.93974773e-05	1.69886915e-05	3.41673904e-05
91              	5.55531459e-02	-1.17054651e-04	5.92540413e-05	2.77506969e-08	-1.12647088e-05	-3.67048817e-05	2.77766007e-02	2.77765452e-02	-9.52322071e-05	-2.18224437e-05	1.83623118e-05	4.08917295e-05
92              	5.52183736e-02	-1.29738214e-04	6.70892457e-05	2.71400339e-08	-1.35974786e-05	-4.05787916e-05	2.76092139e-02	2.76091596e-02	-1.05447899e-04	-2.42903154e-05	1.99471442e-05	4.71421014e-05
93              	5.48791130e-02	-1.42031570e-04	7.47262439e-05	2.64398831e-08	-1.57625939e-05	-4.43321930e-05	2.74395830e-02	2.74395301e-02	-1.15347978e-04	-2.66835922e-05	2.16005281e-05	5.31257159e-05
94              	5.45409302e-02	-1.55459990e-04	8.40976198e-05	2.56845713e-08	-1.84717254e-05	-4.85007340e-05	2.72704908e-02	2.72704394e-02	-1.26230729e-04	-2.92292610e-05	2.35770845e-05	6.05205353e-05
95              	5.41991151e-02	-1.70529730e-04	9.50561710e-05	2.52165561e-08	-2.16552152e-05	-5.32408532e-05	2.70995828e-02	2.70995323e-02	-1.38505718e-04	-3.20240116e-05	2.58728703e-05	6.91833007e-05
96              	5.38480769e-02	-1.86114574e-04	1.07101782e-04	2.46763118e-08	-2.51177797e-05	-5.81251722e-05	2.69240631e-02	2.69240138e-02	-1.51182459e-04	-3.49321150e-05	2.84331114e-05	7.86686707e-05
97              	5.35035809e-02	-2.00179743e-04	1.17677578e-04	2.41800180e-08	-2.80068844e-05	-6.24556122e-05	2.67518147e-02	2.67517663e-02	-1.62545483e-04	-3.76342591e-05	3.08319045e-05	8.68456732e-05
98              	5.31935233e-02	-2.15341189e-04	1.28311866e-04	2.37560593e-08	-3.08717298e-05	-6.70837291e-05	2.65967854e-02	2.65967379e-02	-1.74754324e-04	-4.05868656e-05	3.32842032e-05	9.50276628e-05
99              	5.29321776e-02	-2.32057822e-04	1.38401607e-04	2.38064786e-08	-3.36259604e-05	-7.22325687e-05	2.64661126e-02	2.64660650e-02	-1.88261479e-04	-4.37963421e-05	3.55748432e-05	1.02826764e-04
100             	5.27200057e-02	-2.47205355e-04	1.47097909e-04	2.37922914e-08	-3.61230795e-05	-7.69904193e-05	2.63600266e-02	2.63599790e-02	-2.00593097e-04	-4.66122581e-05	3.74258752e-05	1.09672034e-04
101             	5.25324965e-02	-2.60619766e-04	1.53991953e-04	2.39669389e-08	-3.82099497e-05	-8.13424683e-05	2.62662722e-02	2.62662243e-02	-2.11652351e-04	-4.89674147e-05	3.87860270e-05	1.15205926e-04
102             	5.23414141e-02	-2.75471223e-04	1.60493159e-04	2.44352470e-08	-4.02807654e-05	-8.62853485e-05	2.61707315e-02	2.61706826e-02	-2.24020960e-04	-5.14502632e-05	3.99658141e-05	1.20527345e-04
103             	5.21416420e-02	-2.89824016e-04	1.65670029e-04	2.44915477e-08	-4.18962254e-05	-9.10447025e-05	2.60708455e-02	2.60707965e-02	-2.35956710e-04	-5.38673053e-05	4.09387892e-05	1.24731240e-04
104             	5.19488699e-02	-3.06052727e-04	1.71023772e-04	2.47955052e-08	-4.35335926e-05	-9.63629654e-05	2.59744598e-02	2.59744102e-02	-2.49389329e-04	-5.66633980e-05	4.19782935e-05	1.29045479e-04
105             	5.17740695e-02	-3.23833030e-04	1.77078852e-04	2.54989033e-08	-4.54227781e-05	-1.02229078e-04	2.58870602e-02	2.58870092e-02	-2.64145593e-04	-5.96874372e-05	4.31166479e-05	1.33962204e-04
106             	5.16170741e-02	-3.42371669e-04	1.84665523e-04	2.60334134e-08	-4.78857452e-05	-1.08337104e-04	2.58085631e-02	2.58085110e-02	-2.79522938e-04	-6.28487309e-05	4.44470162e-05	1.40218507e-04
107             	5.14665116e-02	-3.58665314e-04	1.90523801e-04	2.64974584e-08	-4.98784518e-05	-1.13767639e-04	2.57332823e-02	2.57332293e-02	-2.93100296e-04	-6.55650178e-05	4.53834489e-05	1.45140352e-04
108             	5.13145865e-02	-3.71313014e-04	1.95293264e-04	2.66202358e-08	-5.15530994e-05	-1.17994188e-04	2.56573199e-02	2.56572666e-02	-3.03650695e-04	-6.76623194e-05	4.60935326e-05	1.49199731e-04
109             	5.11543440e-02	-3.86003938e-04	2.00740271e-04	2.69444606e-08	-5.33997682e-05	-1.22728767e-04	2.55771989e-02	2.55771451e-02	-3.15730736e-04	-7.02732014e-05	4.69703673e-05	1.53769904e-04
110             	5.09822639e-02	-4.05112136e-04	2.07089783e-04	2.71811328e-08	-5.54762932e-05	-1.28904153e-04	2.54911591e-02	2.54911048e-02	-3.31460221e-04	-7.36519145e-05	4.80685984e-05	1.59021185e-04
111             	5.08005713e-02	-4.25286393e-04	2.14147913e-04	2.72570646e-08	-5.77447943e-05	-1.35351539e-04	2.54003129e-02	2.54002584e-02	-3.47994735e-04	-7.72916581e-05	4.93291622e-05	1.64818751e-04
112             	5.06223982e-02	-4.43847033e-04	2.21808976e-04	2.73003584e-08	-6.01439934e-05	-1.41227150e-04	2.53112264e-02	2.53111718e-02	-3.63150667e-04	-8.06963663e-05	5.07604947e-05	1.71048482e-04
113             	5.04599940e-02	-4.59676010e-04	2.31124104e-04	2.75280893e-08	-6.30303849e-05	-1.46055862e-04	2.52300246e-02	2.52299695e-02	-3.75893867e-04	-8.37821432e-05	5.25316670e-05	1.78592437e-04
114             	5.03096635e-02	-4.80569436e-04	2.43235512e-04	2.73689470e-08	-6.68020052e-05	-1.52388066e-04	2.51548591e-02	2.51548044e-02	-3.92672784e-04	-8.78966522e-05	5.48157510e-05	1.88419761e-04
115             	5.01618642e-02	-5.05732383e-04	2.58586498e-04	2.74876502e-08	-7.16251464e-05	-1.60093345e-04	2.50809596e-02	2.50809046e-02	-4.12959536e-04	-9.27728467e-05	5.76681027e-05	2.00918396e-04
116             	5.00141376e-02	-5.34916347e-04	2.75511444e-04	2.76019557e-08	-7.68725304e-05	-1.69064588e-04	2.50070964e-02	2.50070412e-02	-4.36522761e-04	-9.83935855e-05	6.08831918e-05	2.14628253e-04
117             	4.98759974e-02	-5.71731660e-04	2.96644751e-04	2.79039598e-08	-8.33403455e-05	-1.80403945e-04	2.49380266e-02	2.49379708e-02	-4.66269775e-04	-1.05461885e-04	6.49820301e-05	2.31662721e-04
118             	4.97578046e-02	-6.13439198e-04	3.21721292e-04	2.81127485e-08	-9.10139752e-05	-1.93287163e-04	2.48789304e-02	2.48788742e-02	-5.00006762e-04	-1.13432435e-04	6.98466710e-05	2.51874621e-04
119             	4.96473630e-02	-6.65049288e-04	3.51818109e-04	2.82067908e-08	-1.00314749e-04	-2.09449447e-04	2.48237097e-02	2.48236533e-02	-5.41974091e-04	-1.23075197e-04	7.55943052e-05	2.76223804e-04
120             	4.95394005e-02	-7.22134277e-04	3.85398312e-04	2.84427350e-08	-1.10747556e-04	-2.27339755e-04	2.47697287e-02	2.47696718e-02	-5.88406894e-04	-1.33727383e-04	8.19516003e-05	3.03446712e-04
121             	4.94365533e-02	-7.84707812e-04	4.21144032e-04	2.89281656e-08	-1.21957405e-04	-2.47136526e-04	2.47183056e-02	2.47182477e-02	-6.39490432e-04	-1.45217380e-04	8.86146108e-05	3.32529421e-04
122             	4.93495551e-02	-8.47311442e-04	4.54223945e-04	2.91004136e-08	-1.32317460e-04	-2.67002670e-04	2.46748066e-02	2.46747484e-02	-6.90658392e-04	-1.56653051e-04	9.47945129e-05	3.59429433e-04
123             	4.92985218e-02	-9.06526115e-04	4.84035887e-04	2.92644307e-08	-1.41475377e-04	-2.85529798e-04	2.46492901e-02	2.46492316e-02	-7.38792856e-04	-1.67733259e-04	1.00542566e-04	3.83493321e-04
124             	4.93037743e-02	-9.62358008e-04	5.13795991e-04	2.96365583e-08	-1.50542027e-04	-3.02783989e-04	2.46519168e-02	2.46518575e-02	-7.83962993e-04	-1.78395015e-04	1.06355968e-04	4.07440023e-04
125             	4.93574673e-02	-1.02030309e-03	5.45997851e-04	2.97175715e-08	-1.60345227e-04	-3.20618768e-04	2.46787634e-02	2.46787039e-02	-8.30770311e-04	-1.89532776e-04	1.12653699e-04	4.33344153e-04
126             	4.94459488e-02	-1.07542020e-03	5.77800534e-04	2.99418822e-08	-1.70000570e-04	-3.37516742e-04	2.47230044e-02	2.47229445e-02	-8.75226841e-04	-2.00193356e-04	1.18899697e-04	4.58900837e-04
127             	4.95573681e-02	-1.12943084e-03	6.09589478e-04	2.99780354e-08	-1.79735263e-04	-3.54138635e-04	2.47787140e-02	2.47786541e-02	-9.18854054e-04	-2.10576785e-04	1.25059476e-04	4.84530002e-04
128             	4.96791205e-02	-1.18310838e-03	6.40497351e-04	2.97975390e-08	-1.89292393e-04	-3.70811838e-04	2.48395900e-02	2.48395304e-02	-9.62366029e-04	-2.20742353e-04	1.30956282e-04	5.09541069e-04
129             	4.98091511e-02	-1.23545527e-03	6.70093384e-04	2.98936143e-08	-1.98448909e-04	-3.87122195e-04	2.49046054e-02	2.49045456e-02	-1.00484983e-03	-2.30605440e-04	1.36597783e-04	5.33495601e-04
130             	4.99494018e-02	-1.28865464e-03	6.99115700e-04	2.97238644e-08	-2.07345874e-04	-4.03624028e-04	2.49747306e-02	2.49746712e-02	-1.04795135e-03	-2.40703293e-04	1.42211977e-04	5.56903724e-04
131             	5.01019893e-02	-1.33953770e-03	7.27100824e-04	2.95515898e-08	-2.15789842e-04	-4.19181561e-04	2.50510242e-02	2.50509651e-02	-1.08895041e-03	-2.50587289e-04	1.47760570e-04	5.79340254e-04
132             	5.02674247e-02	-1.38851215e-03	7.53990475e-04	2.93794576e-08	-2.23818811e-04	-4.33995543e-04	2.51337417e-02	2.51336830e-02	-1.12825162e-03	-2.60260531e-04	1.53176426e-04	6.00814049e-04
133             	5.04381193e-02	-1.43901328e-03	7.81328646e-04	2.93477672e-08	-2.32044218e-04	-4.49361225e-04	2.52190890e-02	2.52190303e-02	-1.16886786e-03	-2.70145415e-04	1.58620105e-04	6.22708541e-04
134             	5.06071680e-02	-1.49245260e-03	8.10970068e-04	2.89195561e-08	-2.41114381e-04	-4.65814433e-04	2.53036129e-02	2.53035551e-02	-1.21204073e-03	-2.80411868e-04	1.64370653e-04	6.46599414e-04
135             	5.07747310e-02	-1.55022509e-03	8.42762559e-04	2.84497391e-08	-2.50929652e-04	-4.83742988e-04	2.53873940e-02	2.53873371e-02	-1.25885553e-03	-2.91369558e-04	1.70451627e-04	6.72310932e-04
136             	5.09456766e-02	-1.61262737e-03	8.76708483e-04	2.79539654e-08	-2.61446376e-04	-5.03146130e-04	2.54728663e-02	2.54728103e-02	-1.30945982e-03	-3.03167556e-04	1.76907866e-04	6.99800617e-04
137             	5.11280716e-02	-1.67648631e-03	9.11512654e-04	2.73323502e-08	-2.72192469e-04	-5.22918531e-04	2.55640631e-02	2.55640085e-02	-1.36116169e-03	-3.15324627e-04	1.83563858e-04	7.27948796e-04
138             	5.13270577e-02	-1.73964892e-03	9.46420695e-04	2.66727466e-08	-2.82912819e-04	-5.42352610e-04	2.56635555e-02	2.56635022e-02	-1.41217707e-03	-3.27471848e-04	1.90297529e-04	7.56123166e-04
139             	5.15433663e-02	-1.80316835e-03	9.80823972e-04	2.60379889e-08	-2.93457745e-04	-5.61843130e-04	2.57717092e-02	2.57716571e-02	-1.46342730e-03	-3.39741044e-04	1.96954241e-04	7.83869731e-04
140             	5.17718311e-02	-1.86886676e-03	1.01528249e-03	2.53783068e-08	-3.04051489e-04	-5.82076330e-04	2.58859409e-02	2.58858902e-02	-1.51650971e-03	-3.52357049e-04	2.03589754e-04	8.11692732e-04
141             	5.20018505e-02	-1.93792605e-03	1.05129710e-03	2.43991754e-08	-3.15200077e-04	-6.03468125e-04	2.60009496e-02	2.60009008e-02	-1.57243115e-03	-3.65494898e-04	2.10448472e-04	8.40848625e-04
142             	5.22252004e-02	-2.01164402e-03	1.09014678e-03	2.32171085e-08	-3.27315755e-04	-6.26402006e-04	2.61126234e-02	2.61125770e-02	-1.63222402e-03	-3.79420005e-04	2.17757635e-04	8.72389145e-04
143             	5.24370919e-02	-2.08985493e-03	1.13182438e-03	2.23238064e-08	-3.40359316e-04	-6.50776157e-04	2.62185683e-02	2.62185236e-02	-1.69570362e-03	-3.94151310e-04	2.25552874e-04	9.06271506e-04
144             	5.26352307e-02	-2.17147939e-03	1.17486937e-03	2.17176856e-08	-3.53801574e-04	-6.76207557e-04	2.63176371e-02	2.63175936e-02	-1.76194725e-03	-4.09532139e-04	2.33633111e-04	9.41236259e-04